<?xml version="1.0"?>
<VTKFile type="PolyData" version="0.1" byte_order="LittleEndian" header_type="UInt32" compressor="vtkZLibDataCompressor">
  <PolyData>
    <FieldData>
      <Array type="String" Name="MaterialNames" NumberOfTuples="1" format="ascii">
        109 97 116 101 114 105 97 108 95 48 0
      </Array>
      <Array type="String" Name="MaterialLibraries" NumberOfTuples="1" format="ascii">
        109 97 116 101 114 105 97 108 46 109 116 108 0
      </Array>
    </FieldData>
    <Piece NumberOfPoints="15512" NumberOfVerts="0" NumberOfLines="0" NumberOfStrips="0" NumberOfPolys="30968">
      <PointData Normals="Normals">
        <DataArray type="Float32" Name="Normals" NumberOfComponents="3" format="ascii" RangeMin="0.9999209662683527" RangeMax="1.000075671629443">
          -0.09059999883174896 0.6639000177383423 -0.7422999739646912 0.13689999282360077 0.2506999969482422 -0.958299994468689
          -0.37779998779296875 0.3790000081062317 -0.8446999788284302 -0.3296999931335449 0.06880000233650208 -0.9416000247001648
          0.15309999883174896 0.058800000697374344 -0.9865000247955322 -0.728600025177002 0.17720000445842743 -0.6615999937057495
          0.24480000138282776 -0.11230000108480453 -0.9629999995231628 0.17249999940395355 -0.1469999998807907 -0.9739999771118164
          -0.35899999737739563 0.020899999886751175 -0.9330999851226807 -0.8677999973297119 -0.0044999998062849045 -0.4968999922275543
          0.3052999973297119 -0.3921999931335449 -0.8676999807357788 0.09130000323057175 -0.5170000195503235 -0.8511000275611877
          -0.07660000026226044 -0.29660001397132874 -0.9519000053405762 -0.71670001745224 -0.210999995470047 -0.6646999716758728
          -0.3898000121116638 -0.6489999890327454 -0.6532999873161316 0.15209999680519104 0.38510000705718994 -0.9103000164031982
          0.15710000693798065 0.7512000203132629 -0.6410999894142151 0.3093999922275543 0.3792000114917755 -0.8720999956130981
          -0.002199999988079071 0.4449999928474426 -0.8955000042915344 -0.06949999928474426 0.7724999785423279 -0.6312000155448914
          -0.041999999433755875 0.5412999987602234 -0.8398000001907349 -0.10649999976158142 0.7936000227928162 -0.5990999937057495
          -0.12330000102519989 0.7239999771118164 -0.6786999702453613 -0.25870001316070557 0.8116999864578247 -0.5236999988555908
          -0.451200008392334 0.8047000169754028 -0.38589999079704285 0.26010000705718994 0.14110000431537628 -0.9552000164985657
          0.43070000410079956 0.08619999885559082 -0.8982999920845032 0.07039999961853027 0.17790000140666962 -0.9815000295639038
          0.14259999990463257 0.33570000529289246 -0.9311000108718872 -0.5931000113487244 0.6146000027656555 -0.5199999809265137
          0.3260999917984009 -0.025299999862909317 -0.9449999928474426 0.46219998598098755 -0.09910000115633011 -0.8812000155448914
          0.12729999423027039 0.019099999219179153 -0.9916999936103821 0.23420000076293945 0.08780000358819962 -0.9682000279426575
          -0.8147000074386597 0.45509999990463257 -0.3594000041484833 -0.9370999932289124 0.17430000007152557 -0.3025999963283539
          0.29910001158714294 -0.1574999988079071 -0.941100001335144 0.4747999906539917 -0.3084999918937683 -0.8241999745368958
          0.5024999976158142 -0.3765000104904175 -0.7782999873161316 0.6425999999046326 -0.4000000059604645 -0.6535000205039978
          0.3357999920845032 -0.19140000641345978 -0.9222999811172485 0.10649999976158142 -0.13289999961853027 -0.9854000210762024
          0.2150000035762787 -0.30070000886917114 -0.9291999936103821 -0.9101999998092651 -0.3407000005245209 -0.2353000044822693
          0.45910000801086426 -0.17990000545978546 -0.8700000047683716 0.7943000197410583 -0.23499999940395355 -0.5601999759674072
          0.04050000011920929 -0.09130000323057175 -0.9950000047683716 -0.1728000044822693 -0.2847999930381775 -0.9429000020027161
          -0.6328999996185303 -0.5896000266075134 -0.501800000667572 -0.703000009059906 -0.39739999175071716 -0.5898000001907349
          0.5241000056266785 0.04910000041127205 -0.8501999974250793 0.042399998754262924 -0.01119999960064888 -0.9990000128746033
          -0.44830000400543213 -0.12800000607967377 -0.8847000002861023 -0.6887000203132629 -0.30880001187324524 -0.656000018119812
          0.33809998631477356 0.1151999980211258 -0.9340000152587891 0.6486999988555908 0.2624000012874603 -0.7143999934196472
          0.7591000199317932 0.15209999680519104 -0.6330000162124634 -0.15530000627040863 0.012299999594688416 -0.9878000020980835
          -0.5138999819755554 0.01600000075995922 -0.857699990272522 0.2921000123023987 0.012400000356137753 -0.9563000202178955
          0.7901999950408936 0.041200000792741776 -0.6114000082015991 -0.5163999795913696 0.08089999854564667 -0.8525000214576721
          -0.4878999888896942 0.06769999861717224 -0.8702999949455261 -0.7871999740600586 0.10350000113248825 -0.6079999804496765
          0.3668999969959259 -0.21819999814033508 -0.9042999744415283 0.7261999845504761 -0.14270000159740448 -0.6725000143051147
          0.02280000038444996 -0.16060000658035278 -0.9868000149726868 -0.3725999891757965 0.01600000075995922 -0.9277999997138977
          -0.7576000094413757 0.08969999849796295 -0.6464999914169312 0.287200003862381 -0.21089999377727509 -0.9344000220298767
          0.250900000333786 -0.3357999920845032 -0.9078999757766724 0.3075999915599823 -0.09539999812841415 -0.9466999769210815
          -0.18490000069141388 -0.008899999782443047 -0.982699990272522 -0.8138999938964844 0.12809999287128448 -0.5666999816894531
          -0.09149999916553497 -0.03629999980330467 -0.9951000213623047 0.3199999928474426 -0.022099999710917473 -0.9472000002861023
          -0.7111999988555908 0.02969999983906746 -0.7024000287055969 0.004900000058114529 -0.04740000143647194 -0.9988999962806702
          -0.7886000275611877 -0.14110000431537628 -0.5985000133514404 0.31029999256134033 -0.29750001430511475 -0.902899980545044
          -0.13580000400543213 -0.30070000886917114 -0.9440000057220459 -0.7211999893188477 -0.3019999861717224 -0.6233999729156494
          -0.13979999721050262 -0.26249998807907104 -0.9546999931335449 0.19769999384880066 0.3197000026702881 -0.9266999959945679
          0.30399999022483826 -0.430400013923645 -0.8499000072479248 -0.2395000010728836 -0.8149999976158142 -0.5277000069618225
          -0.8116000294685364 -0.1485999971628189 -0.5648999810218811 -0.3416999876499176 -0.8792999982833862 -0.33180001378059387
          0.1193000003695488 0.4171000123023987 -0.9010000228881836 0.12620000541210175 0.7265999913215637 -0.6754000186920166
          0.3718000054359436 0.3285999894142151 -0.8682000041007996 -0.04390000179409981 0.6901999711990356 -0.7222999930381775
          -0.003100000089034438 0.6164000034332275 -0.7875000238418579 -0.0729999989271164 0.8716999888420105 -0.4846000075340271
          -0.1582999974489212 0.857699990272522 -0.48910000920295715 0.23569999635219574 0.15700000524520874 -0.9591000080108643
          0.43070000410079956 0.10610000044107437 -0.8963000178337097 0.04309999942779541 0.24310000240802765 -0.9690999984741211
          0.17090000212192535 0.3084999918937683 -0.935699999332428 -0.07599999755620956 0.8428000211715698 -0.532800018787384
          -0.11760000139474869 0.9251999855041504 -0.36070001125335693 -0.17479999363422394 0.9197999835014343 -0.3513999879360199
          -0.3176000118255615 0.8934999704360962 -0.3172999918460846 0.27730000019073486 0.029400000348687172 -0.9603000283241272
          0.4449000060558319 0.0007999999797903001 -0.8956000208854675 0.09489999711513519 0.05570000037550926 -0.9939000010490417
          0.23669999837875366 0.11490000039339066 -0.9648000001907349 -0.6628999710083008 0.6855999827384949 -0.30070000886917114
          -0.8445000052452087 0.45719999074935913 -0.2791000008583069 0.28610000014305115 -0.08290000259876251 -0.9545999765396118
          0.45719999074935913 -0.11240000277757645 -0.8822000026702881 0.10869999974966049 -0.07590000331401825 -0.9911999702453613
          0.2720000147819519 -0.04320000112056732 -0.9613000154495239 -0.9645000100135803 0.09560000151395798 -0.2460000067949295
          0.3165999948978424 -0.30970001220703125 -0.8966000080108643 0.45579999685287476 -0.41519999504089355 -0.7872999906539917
          0.10859999805688858 -0.21449999511241913 -0.9707000255584717 0.2718999981880188 -0.24040000140666962 -0.9318000078201294
          -0.9739999771118164 -0.1446000039577484 -0.17470000684261322 0.3619999885559082 -0.7716000080108643 -0.5230000019073486
          0.39469999074935913 -0.8938999772071838 -0.2125999927520752 0.26030001044273376 -0.4880000054836273 -0.8331000208854675
          0.10779999941587448 -0.3610999882221222 -0.9262999892234802 0.4090000092983246 -0.5047000050544739 -0.760200023651123
          -0.9362999796867371 -0.32839998602867126 -0.1242000013589859 0.16699999570846558 -0.8335999846458435 -0.5266000032424927
          0.15029999613761902 -0.8547000288963318 -0.4968000054359436 0.5228999853134155 -0.7922999858856201 -0.3142000138759613
          0.9045000076293945 -0.42289999127388 -0.05570000037550926 -0.8730000257492065 -0.4260999858379364 -0.23739999532699585
          -0.8515999913215637 -0.48579999804496765 -0.19709999859333038 0.7307000160217285 -0.09000000357627869 -0.6766999959945679
          0.9624999761581421 0.025800000876188278 -0.2700999975204468 -0.911300003528595 -0.32829999923706055 -0.24860000610351562
          -0.896399974822998 -0.4097999930381775 -0.16910000145435333 0.9703999757766724 0.16110000014305115 -0.17970000207424164
          -0.7639999985694885 0.08250000327825546 -0.6399000287055969 -0.9007999897003174 -0.08749999850988388 -0.4253000020980835
          0.9724000096321106 0.17820000648498535 -0.15039999783039093 -0.934499979019165 0.10170000046491623 -0.3409999907016754
          0.6854000091552734 0.0763000026345253 -0.7240999937057495 0.9077000021934509 0.2969000041484833 -0.29660001397132874
          0.8719000220298767 0.1915999948978424 -0.4505999982357025 -0.9366000294685364 0.1362999975681305 -0.3228999972343445
          0.44119998812675476 0.0430000014603138 -0.896399974822998 0.7687000036239624 0.11559999734163284 -0.6291000247001648
          0.24500000476837158 -0.21160000562667847 -0.9462000131607056 0.3652999997138977 0.050999999046325684 -0.9294999837875366
          0.617900013923645 0.17489999532699585 -0.7664999961853027 0.1809999942779541 -0.02319999970495701 -0.9832000136375427
          0.23569999635219574 -0.034699998795986176 -0.9711999893188477 -0.9498999714851379 -0.01140000019222498 -0.31220000982284546
          0.3001999855041504 0.05719999969005585 -0.9521999955177307 0.4950999915599823 0.12049999833106995 -0.8604000210762024
          0.12399999797344208 -0.009700000286102295 -0.9922000169754028 0.23759999871253967 -0.04809999838471413 -0.9702000021934509
          0.2305999994277954 0.04340000078082085 -0.972100019454956 0.374099999666214 0.1762000024318695 -0.9104999899864197
          0.08320000022649765 -0.0348999984562397 -0.9958999752998352 0.03830000013113022 -0.13120000064373016 -0.9905999898910522
          -0.8489000201225281 -0.5034999847412109 -0.16089999675750732 0.34299999475479126 -0.06449999660253525 -0.9370999932289124
          0.4239000082015991 -0.17440000176429749 -0.888700008392334 0.05460000038146973 -0.32330000400543213 -0.9447000026702881
          0.1988999992609024 -0.2337999939918518 -0.95169997215271 -0.5519999861717224 -0.7964000105857849 -0.24719999730587006
          -0.795799970626831 -0.5669999718666077 -0.2126999944448471 0.1687999963760376 -0.5403000116348267 -0.824400007724762
          -0.043699998408555984 -0.7024000287055969 -0.7103999853134155 -0.08810000121593475 -0.8935999870300293 -0.4401000142097473
          -0.5307999849319458 -0.8475000262260437 0.007600000128149986 0.23350000381469727 0.429500013589859 -0.8723999857902527
          0.3926999866962433 0.7587000131607056 -0.5198000073432922 0.5202000141143799 0.4171999990940094 -0.745199978351593
          0.13930000364780426 0.388700008392334 -0.9107999801635742 0.1800999939441681 0.7728000283241272 -0.6085000038146973
          0.3077000081539154 0.43529999256134033 -0.8460999727249146 0.14509999752044678 0.8077999949455261 -0.571399986743927
          -0.014800000004470348 0.9337999820709229 -0.35749998688697815 -0.1251000016927719 0.9107999801635742 -0.3935000002384186
          -0.1168999969959259 0.9355000257492065 -0.33340001106262207 -0.16429999470710754 0.9225000143051147 -0.34940001368522644
          -0.1639000028371811 0.9228000044822693 -0.34860000014305115 0.2897000014781952 0.1574999988079071 -0.944100022315979
          0.5159000158309937 0.20550000667572021 -0.83160001039505 0.12070000171661377 0.16060000658035278 -0.9796000123023987
          0.3003000020980835 0.17339999973773956 -0.9379000067710876 -0.20659999549388885 0.9280999898910522 -0.3098999857902527
          -0.32829999923706055 0.899399995803833 -0.28859999775886536 -0.5375999808311462 0.779699981212616 -0.32100000977516174
          0.2921999990940094 0.028599999845027924 -0.9559000134468079 0.4625000059604645 0.02979999966919422 -0.8860999941825867
          0.11590000241994858 0.01979999989271164 -0.9930999875068665 0.2847000062465668 0.041200000792741776 -0.9577000141143799
          -0.6779999732971191 0.6474999785423279 -0.34790000319480896 -0.8463000059127808 0.4011000096797943 -0.3504999876022339
          0.26989999413490295 -0.08940000087022781 -0.9587000012397766 0.4498000144958496 -0.09929999709129333 -0.8876000046730042
          0.10769999772310257 -0.11389999836683273 -0.9876000285148621 0.2897999882698059 -0.08049999922513962 -0.9537000060081482
          -0.9424999952316284 0.15569999814033508 -0.29589998722076416 -0.9674999713897705 -0.030500000342726707 -0.25110000371932983
          -0.9613000154495239 0.006500000134110451 -0.27559998631477356 0.25839999318122864 -0.3626999855041504 -0.8953999876976013
          0.38449999690055847 -0.4745999872684479 -0.7918000221252441 0.08630000054836273 -0.4147999882698059 -0.9057999849319458
          0.2879999876022339 -0.3732999861240387 -0.8819000124931335 -0.9739000201225281 -0.09860000014305115 -0.2046000063419342
          0.1088000014424324 -0.8055999875068665 -0.5824000239372253 0.09700000286102295 -0.8388000130653381 -0.5357999801635742
          0.28040000796318054 -0.8884999752044678 -0.36320000886917114 0.1420000046491623 -0.9897000193595886 -0.018200000748038292
          0.15600000321865082 -0.9699000120162964 0.18700000643730164 0.12189999967813492 -0.9818000197410583 0.14569999277591705
          0.12950000166893005 -0.9580000042915344 0.2556999921798706 0.15780000388622284 -0.9785000085830688 0.13289999961853027
          0.43470001220703125 -0.8636000156402588 0.25529998540878296 -0.9351999759674072 -0.3416000008583069 -0.09390000253915787
          0.7560999989509583 -0.5817999839782715 0.29980000853538513 0.9642000198364258 -0.17180000245571136 0.20190000534057617
          -0.8867999911308289 -0.436599999666214 -0.1517000049352646 0.9865999817848206 0.10199999809265137 0.12700000405311584
          -0.9487000107765198 -0.24629999697208405 -0.19840000569820404 0.9754999876022339 0.1915999948978424 0.10790000110864639
          -0.9668999910354614 -0.019200000911951065 -0.25459998846054077 -0.9524999856948853 0.12070000171661377 -0.27970001101493835
          0.9477999806404114 0.3061000108718872 0.08990000188350677 0.9491999745368958 0.27639999985694885 0.15070000290870667
          -0.9448000192642212 0.15199999511241913 -0.29019999504089355 0.9205999970436096 0.3598000109195709 0.15199999511241913
          0.90420001745224 0.39100000262260437 -0.17170000076293945 -0.9211999773979187 0.1437000036239624 -0.36169999837875366
          0.5974000096321106 0.43880000710487366 -0.6711999773979187 0.758400022983551 0.6335999965667725 -0.15289999544620514
          0.5640000104904175 0.6832000017166138 -0.46389999985694885 -0.9271000027656555 0.08150000125169754 -0.36579999327659607
          -0.9298999905586243 -0.10499999672174454 -0.35249999165534973 -0.9103000164031982 -0.01759999990463257 -0.41350001096725464
          0.34369999170303345 0.5824000239372253 -0.7365999817848206 0.3230000138282776 0.33550000190734863 -0.8848999738693237
          0.4528999924659729 0.7310000061988831 -0.5103999972343445 0.460999995470047 0.20749999582767487 -0.8628000020980835
          -0.9243000149726868 -0.3138999938964844 -0.21729999780654907 -0.9010000228881836 -0.23600000143051147 -0.36399999260902405
          0.2206999957561493 0.19519999623298645 -0.9556000232696533 0.23510000109672546 0.25270000100135803 -0.9386000037193298
          -0.8016999959945679 -0.5964000225067139 -0.03959999978542328 0.335099995136261 -0.04019999876618385 -0.9412999749183655
          0.41190001368522644 0.37040001153945923 -0.8324999809265137 0.24369999766349792 -0.03840000182390213 -0.9690999984741211
          0.15929999947547913 -0.18359999358654022 -0.9700000286102295 0.20649999380111694 -0.059700001031160355 -0.9765999913215637
          -0.5777000188827515 -0.8138999938964844 0.06129999831318855 -0.5972999930381775 -0.8008000254631042 0.044199999421834946
          0.2809000015258789 -0.45680001378059387 -0.8440999984741211 0.2459000051021576 -0.5171999931335449 -0.8198000192642212
          0.19419999420642853 -0.6398000121116638 -0.7436000108718872 0.16990000009536743 -0.4311000108718872 -0.8862000107765198
          0.14319999516010284 -0.5322999954223633 -0.8343999981880188 -0.10999999940395355 -0.703499972820282 -0.7020999789237976
          -0.4041000008583069 -0.8396999835968018 -0.3626999855041504 -0.3700000047683716 -0.9128000140190125 -0.1729000061750412
          -0.5182999968528748 -0.8500000238418579 0.09399999678134918 0.10189999639987946 -0.7849000096321106 -0.6111000180244446
          -0.05530000105500221 -0.8858000040054321 -0.4607999920845032 -0.3617999851703644 -0.879800021648407 -0.3084999918937683
          0.38850000500679016 0.886900007724762 -0.25 0.5073000192642212 0.6689000129699707 -0.5432999730110168
          0.23420000076293945 0.9359999895095825 -0.26269999146461487 0.08449999988079071 0.9509999752044678 -0.29750001430511475
          -0.0038999998942017555 0.9599000215530396 -0.2800999879837036 -0.08489999920129776 0.9496999979019165 -0.30140000581741333
          -0.14720000326633453 0.9340000152587891 -0.3255000114440918 0.5148000121116638 0.5512999892234802 -0.6565999984741211
          0.25760000944137573 0.3176000118255615 -0.9125999808311462 0.41260001063346863 0.7159000039100647 -0.5631999969482422
          0.3693999946117401 0.35530000925064087 -0.8586999773979187 0.3398999869823456 0.7455999851226807 -0.5730999708175659
          -0.4860999882221222 0.8219000101089478 -0.296999990940094 -0.6571999788284302 0.6759999990463257 -0.33340001106262207
          0.5985000133514404 0.2856999933719635 -0.7484999895095825 0.29840001463890076 0.23199999332427979 -0.9258000254631042
          0.18310000002384186 0.15790000557899475 -0.970300018787384 0.3449000120162964 0.11420000344514847 -0.9316999912261963
          -0.7996000051498413 0.4821999967098236 -0.3578999936580658 -0.8946999907493591 0.24869999289512634 -0.3709000051021576
          -0.9204000234603882 0.24729999899864197 -0.3028999865055084 0.33320000767707825 0.01080000028014183 -0.942799985408783
          0.5357000231742859 -0.0024999999441206455 -0.8443999886512756 0.10109999775886536 -0.03579999879002571 -0.9941999912261963
          0.3012999892234802 -0.035599999129772186 -0.9528999924659729 -0.9648000001907349 -0.02199999988079071 -0.2621000111103058
          0.21240000426769257 -0.29089999198913574 -0.9329000115394592 0.3188999891281128 -0.11330000311136246 -0.9409999847412109
          0.23070000112056732 -0.36469998955726624 -0.9021000266075134 -0.9560999870300293 -0.18729999661445618 -0.22540000081062317
          0.13359999656677246 -0.48179998993873596 -0.8659999966621399 -0.07109999656677246 -0.682699978351593 -0.7271999716758728
          0.10859999805688858 -0.8931000232696533 -0.43650001287460327 -0.020400000736117363 -0.9955000281333923 -0.09260000288486481
          -0.012299999594688416 -0.9983999729156494 -0.0560000017285347 0.0746999979019165 -0.9947999715805054 0.06989999860525131
          0.05959999933838844 -0.9761000275611877 0.20909999310970306 0.051100000739097595 -0.9555000066757202 0.2904999852180481
          0.120899997651577 -0.9480000138282776 0.29440000653266907 0.36149999499320984 -0.8873000144958496 0.2865000069141388
          -0.9416999816894531 -0.30559998750686646 -0.14090000092983246 -0.9319000244140625 -0.2856000065803528 -0.22380000352859497
          0.9490000009536743 -0.15610000491142273 0.27399998903274536 -0.897599995136261 -0.41429999470710754 -0.15060000121593475
          0.9585000276565552 0.1387999951839447 0.24899999797344208 -0.9605000019073486 -0.21619999408721924 -0.1753000020980835
          -0.909500002861023 -0.3813000023365021 -0.16580000519752502 0.9599999785423279 0.1891999989748001 0.20630000531673431
          -0.9728000164031982 -0.002300000051036477 -0.23180000483989716 0.9620000123977661 0.1995999962091446 0.18610000610351562
          0.9379000067710876 0.2953999936580658 0.1817999929189682 -0.9110999703407288 0.2054000049829483 -0.3573000133037567
          -0.8978999853134155 0.21459999680519104 -0.38440001010894775 -0.8661999702453613 0.24639999866485596 -0.43479999899864197
          0.855400025844574 0.5023000240325928 0.12680000066757202 -0.9067999720573425 0.16910000145435333 -0.3862000107765198
          0.6865000128746033 0.7257999777793884 0.04439999908208847 0.5526000261306763 0.8307999968528748 -0.06599999964237213
          -0.9501000046730042 -0.035100001841783524 -0.3098999857902527 0.07689999788999557 0.3668000102043152 -0.9271000027656555
          0.14790000021457672 0.699999988079071 -0.6985999941825867 0.31470000743865967 0.3878999948501587 -0.8662999868392944
          -0.10019999742507935 0.7649999856948853 -0.6362000107765198 0.2092999964952469 0.788100004196167 -0.5788999795913696
          0.23499999940395355 0.9003999829292297 -0.3659999966621399 0.36719998717308044 0.9103000164031982 -0.19120000302791595
          -0.8310999870300293 -0.49059998989105225 -0.2619999945163727 -0.8952999711036682 -0.35120001435279846 -0.27399998903274536
          0.19449999928474426 0.1746000051498413 -0.9652000069618225 0.3815000057220459 0.2768000066280365 -0.8820000290870667
          0.033900000154972076 0.30140000581741333 -0.9528999924659729 0.2928999960422516 0.40950000286102295 -0.8640000224113464
          -0.7599999904632568 -0.649399995803833 -0.024399999529123306 -0.7851999998092651 -0.60589998960495 -0.12780000269412994
          0.3474999964237213 -0.032499998807907104 -0.9370999932289124 0.4726000130176544 0.22210000455379486 -0.8528000116348267
          0.4927000105381012 -0.26080000400543213 -0.8302000164985657 0.18160000443458557 -0.22619999945163727 -0.9570000171661377
          -0.5224000215530396 -0.843999981880188 0.1216999962925911 -0.5519000291824341 -0.8270000219345093 0.10670000314712524
          -0.5175999999046326 -0.8497999906539917 0.0997999981045723 -0.5856000185012817 -0.8076000213623047 0.07010000199079514
          0.2775000035762787 -0.5454000234603882 -0.7908999919891357 0.2883000075817108 -0.5652999877929688 -0.7728999853134155
          0.37369999289512634 -0.6650999784469604 -0.6466000080108643 0.25600001215934753 -0.41620001196861267 -0.8725000023841858
          0.17640000581741333 -0.39320001006126404 -0.902400016784668 0.19900000095367432 -0.5091999769210815 -0.8373000025749207
          -0.5270000100135803 -0.8478999733924866 0.05689999833703041 0.3763999938964844 -0.779699981212616 -0.5002999901771545
          0.4523000121116638 -0.8748000264167786 -0.1737000048160553 0.2540000081062317 -0.5414999723434448 -0.8014000058174133
          -0.01810000091791153 -0.5590000152587891 -0.8289999961853027 -0.15620000660419464 -0.9437000155448914 -0.2915000021457672
          -0.28450000286102295 -0.8683000206947327 -0.40630000829696655 -0.1736000031232834 -0.9836000204086304 -0.04780000075697899
          -0.357699990272522 -0.9309999942779541 0.07349999994039536 0.1868000030517578 -0.9003000259399414 -0.39309999346733093
          -0.11219999939203262 -0.9524000287055969 -0.2833999991416931 0.3882000148296356 0.8919000029563904 -0.23199999332427979
          0.34450000524520874 0.9240999817848206 -0.16509999334812164 0.26840001344680786 0.9463000297546387 -0.18019999563694
          0.15000000596046448 0.9628999829292297 -0.22419999539852142 0.002400000113993883 0.958899974822998 -0.28360000252723694
          -0.12280000001192093 0.9416000247001648 -0.31360000371932983 -0.13449999690055847 0.944599986076355 -0.2992999851703644
          -0.17010000348091125 0.9304999709129333 -0.32429999113082886 -0.23690000176429749 0.9190999865531921 -0.3149000108242035
          -0.3190999925136566 0.8999999761581421 -0.2971000075340271 0.6126000285148621 0.7669000029563904 -0.19140000641345978
          0.491100013256073 0.8553000092506409 -0.16500000655651093 -0.4212000072002411 0.8544999957084656 -0.30410000681877136
          -0.6176999807357788 0.7001000046730042 -0.3580999970436096 0.6383000016212463 0.6294000148773193 -0.4431999921798706
          -0.8051000237464905 0.499099999666214 -0.320499986410141 -0.9372000098228455 0.23999999463558197 -0.2531000077724457
          0.3637000024318695 0.3208000063896179 -0.8744999766349792 0.6297000050544739 0.6728000044822693 -0.38850000500679016
          0.6241999864578247 0.6108999848365784 -0.4869999885559082 0.5965999960899353 0.6714000105857849 -0.43970000743865967
          0.508899986743927 0.18880000710487366 -0.839900016784668 -0.9761999845504761 -0.042899999767541885 -0.21279999613761902
          0.5378999710083008 0.18019999563694 -0.8234999775886536 0.8156999945640564 0.517799973487854 -0.25780001282691956
          0.8136000037193298 0.15649999678134918 -0.5600000023841858 0.265500009059906 -0.07069999724626541 -0.9614999890327454
          -0.9491999745368958 -0.24040000140666962 -0.2029999941587448 0.38269999623298645 -0.22499999403953552 -0.8960999846458435
          0.3111000061035156 -0.32269999384880066 -0.8938999772071838 0.33180001378059387 -0.2029999941587448 -0.9211999773979187
          0.21279999613761902 -0.17730000615119934 -0.9609000086784363 0.03920000046491623 -0.3237999975681305 -0.9452999830245972
          -0.3668999969959259 -0.590499997138977 -0.7188000082969666 -0.4571000039577484 -0.8003000020980835 -0.3880999982357025
          -0.23880000412464142 -0.9628000259399414 -0.1265999972820282 -0.11739999800920486 -0.9900000095367432 0.07779999822378159
          -0.07100000232458115 -0.9818000197410583 0.17589999735355377 -0.00139999995008111 -0.9751999974250793 0.2214999943971634
          -0.006899999920278788 -0.9639999866485596 0.26579999923706055 -0.012799999676644802 -0.9417999982833862 0.3359000086784363
          0.11919999867677689 -0.9218000173568726 0.36899998784065247 0.33799999952316284 -0.8727999925613403 0.3521000146865845
          0.7439000010490417 -0.5557000041007996 0.37139999866485596 -0.925000011920929 -0.353300005197525 -0.13979999721050262
          0.22100000083446503 -0.04500000178813934 -0.9742000102996826 -0.22360000014305115 -0.2614000141620636 -0.9390000104904175
          -0.649399995803833 -0.5131999850273132 -0.5612000226974487 -0.7523999810218811 -0.6287999749183655 -0.19629999995231628
          0.9574000239372253 -0.06800000369548798 0.28049999475479126 0.9492999911308289 -0.11919999867677689 0.29100000858306885
          0.8043000102043152 -0.48159998655319214 0.3481000065803528 -0.9161999821662903 -0.364300012588501 -0.16689999401569366
          0.258899986743927 0.12129999697208405 -0.958299994468689 -0.16689999401569366 -0.12099999934434891 -0.9785000085830688
          -0.6330000162124634 -0.396699994802475 -0.6646999716758728 -0.7149999737739563 -0.49970000982284546 -0.48890000581741333
          0.9549999833106995 0.13130000233650208 0.26589998602867126 0.9718000292778015 0.06859999895095825 0.22550000250339508
          -0.9606999754905701 -0.15199999511241913 -0.23229999840259552 -0.9158999919891357 -0.29510000348091125 -0.2721000015735626
          0.08799999952316284 0.05290000140666962 -0.994700014591217 0.34860000014305115 0.23170000314712524 -0.9082000255584717
          0.3605000078678131 0.07320000231266022 -0.9298999905586243 -0.5681999921798706 -0.17419999837875366 -0.8041999936103821
          -0.7541999816894531 -0.29989999532699585 -0.5842000246047974 0.9444000124931335 0.17790000140666962 0.27630001306533813
          0.9290000200271606 0.2134999930858612 0.30219998955726624 -0.9431999921798706 0.061799999326467514 -0.3262999951839447
          -0.019099999219179153 -0.025299999862909317 -0.9994999766349792 0.3736000061035156 -0.01850000023841858 -0.9273999929428101
          -0.557699978351593 -0.09549999982118607 -0.8245000243186951 0.9350000023841858 0.22840000689029694 0.2712000012397766
          -0.9023000001907349 0.1728000044822693 -0.39500001072883606 -0.8977000117301941 0.2037999927997589 -0.39070001244544983
          -0.9067000150680542 0.19249999523162842 -0.37540000677108765 0.033399999141693115 -0.25279998779296875 -0.9668999910354614
          0.38989999890327454 -0.31189998984336853 -0.8664000034332275 -0.44110000133514404 -0.20720000565052032 -0.873199999332428
          0.9035000205039978 0.3598000109195709 0.2328999936580658 0.08460000157356262 -0.4284000098705292 -0.8996000289916992
          0.7827000021934509 0.6031000018119812 0.15369999408721924 -0.9625999927520752 0.0835999995470047 -0.25780001282691956
          0.12280000001192093 0.28769999742507935 -0.9498000144958496 0.025499999523162842 0.5048999786376953 -0.8628000020980835