<?xml version="1.0"?>
<VTKFile type="PolyData" version="0.1" byte_order="LittleEndian" header_type="UInt32" compressor="vtkZLibDataCompressor">
  <PolyData>
    <FieldData>
      <Array type="String" Name="MaterialNames" NumberOfTuples="1" format="ascii">
        109 97 116 101 114 105 97 108 95 48 0
      </Array>
      <Array type="String" Name="MaterialLibraries" NumberOfTuples="1" format="ascii">
        109 97 116 101 114 105 97 108 46 109 116 108 0
      </Array>
    </FieldData>
    <Piece NumberOfPoints="18183" NumberOfVerts="0" NumberOfLines="0" NumberOfStrips="0" NumberOfPolys="36522">
      <PointData Normals="Normals">
        <DataArray type="Float32" Name="Normals" NumberOfComponents="3" format="ascii" RangeMin="0.9999259415878251" RangeMax="1.0000780510800962">
          -0.05249999836087227 -0.48100000619888306 -0.8751000165939331 -0.15379999577999115 -0.47189998626708984 -0.8682000041007996
          -0.21199999749660492 -0.47380000352859497 -0.8547999858856201 0.026399999856948853 -0.09830000251531601 -0.9947999715805054
          0.09809999912977219 -0.10239999741315842 -0.9898999929428101 0.08190000057220459 -0.15129999816417694 -0.9850999712944031
          -0.33660000562667847 0.15559999644756317 0.9286999702453613 -0.25859999656677246 0.17080000042915344 0.9508000016212463
          -0.3199999928474426 0.18150000274181366 0.9298999905586243 0.8424999713897705 0.06319999694824219 0.5350000262260437
          0.8564000129699707 0.005799999926239252 0.5163000226020813 0.7063999772071838 0.08160000294446945 0.7031000256538391
          -0.2563000023365021 0.11289999634027481 0.9599999785423279 -0.3693000078201294 0.10949999839067459 0.9228000044822693
          -0.21889999508857727 0.15379999577999115 0.9635999798774719 0.45419999957084656 -0.2687000036239624 -0.849399983882904
          0.4878999888896942 -0.27149999141693115 -0.8295999765396118 0.3758000135421753 -0.2865000069141388 -0.8812999725341797
          0.006800000090152025 -0.10840000212192535 -0.9940999746322632 0.12479999661445618 -0.14499999582767487 -0.9815000295639038
          0.054499998688697815 -0.1624000072479248 -0.9851999878883362 -0.9883999824523926 -0.14069999754428864 -0.057500001043081284
          -0.9979000091552734 -0.04740000143647194 -0.04309999942779541 -0.9684000015258789 -0.002199999988079071 0.24950000643730164
          -0.7645999789237976 -0.06379999965429306 0.6413000226020813 -0.6284000277519226 -0.163100004196167 0.7605999708175659
          -0.7228999733924866 -0.13359999656677246 0.6779000163078308 -0.5564000010490417 0.2298000007867813 0.7985000014305115
          -0.5324000120162964 0.2143000066280365 0.8190000057220459 -0.7027999758720398 0.20080000162124634 0.6823999881744385
          0.9908000230789185 -0.1354999989271164 0.006500000134110451 0.9972000122070312 -0.06520000100135803 0.035599999129772186
          0.9902999997138977 -0.13680000603199005 0.025800000876188278 -0.4781999886035919 0.819100022315979 -0.31690001487731934
          -0.4259999990463257 0.8616999983787537 -0.27570000290870667 -0.5292999744415283 0.8234999775886536 -0.20389999449253082
          0.6607999801635742 -0.7468000054359436 0.07479999959468842 0.7062000036239624 -0.7073000073432922 -0.03099999949336052
          0.6444000005722046 -0.7645000219345093 -0.016599999740719795 -0.4754999876022339 0.6197999715805054 -0.6243000030517578
          -0.578499972820282 0.49729999899864197 -0.6466000080108643 -0.5501000285148621 0.6229000091552734 -0.5562000274658203
          -0.9968000054359436 -0.0364999994635582 -0.07100000232458115 -0.9918000102043152 -0.09049999713897705 -0.09019999951124191
          -0.984000027179718 -0.0681999996304512 -0.1647000014781952 0.3010999858379364 0.4916999936103821 0.8169999718666077
          0.37549999356269836 0.4318999946117401 0.8199999928474426 0.131400004029274 0.4300999939441681 0.8931999802589417
          -0.47530001401901245 -0.47679999470710754 -0.7394999861717224 -0.4860000014305115 -0.48089998960494995 -0.7297999858856201
          -0.5339999794960022 -0.4652999937534332 -0.7059000134468079 0.5202999711036682 -0.8539000153541565 0.015599999576807022
          0.5360000133514404 -0.8077999949455261 0.24539999663829803 0.5740000009536743 -0.8026999831199646 0.16169999539852142
          -0.5457000136375427 0.35929998755455017 -0.7570000290870667 -0.5246999859809875 0.35600000619888306 -0.7732999920845032
          -0.565500020980835 0.32499998807907104 -0.7580000162124634 0.8259000182151794 -0.34310001134872437 0.447299987077713
          0.6230999827384949 -0.722100019454956 0.3005000054836273 0.5576000213623047 -0.8041999936103821 0.20559999346733093
          -0.1200999990105629 -0.9919000267982483 0.0406000018119812 0.09749999642372131 -0.9850999712944031 0.14139999449253082
          0.12020000070333481 -0.9882000088691711 -0.09520000219345093 0.8607000112533569 0.41350001096725464 0.2969000041484833
          0.9276999831199646 0.32910001277923584 0.17599999904632568 0.9241999983787537 0.2944999933242798 0.24330000579357147
          0.2513999938964844 -0.055799998342990875 -0.9663000106811523 0.32109999656677246 -0.0803999975323677 -0.9435999989509583
          0.4745999872684479 -0.08940000087022781 -0.8755999803543091 0.7572000026702881 -0.0746999979019165 -0.6488999724388123
          0.832099974155426 -0.05900000035762787 -0.5514000058174133 0.7831000089645386 -0.07069999724626541 -0.617900013923645
          -0.9606000185012817 -0.07620000094175339 -0.267300009727478 -0.9697999954223633 -0.0737999975681305 -0.23260000348091125
          -0.9790999889373779 -0.04650000110268593 -0.1979999989271164 0.22609999775886536 -0.12970000505447388 -0.965399980545044
          0.26589998602867126 -0.1429000049829483 -0.9534000158309937 0.1728000044822693 -0.11940000206232071 -0.9776999950408936
          -0.9506999850273132 0.23360000550746918 -0.20389999449253082 -0.9478999972343445 0.22589999437332153 -0.22460000216960907
          -0.9700000286102295 0.24169999361038208 0.024399999529123306 0.2766999900341034 -0.4120999872684479 -0.8680999875068665
          0.16099999845027924 -0.3865000009536743 -0.9081000089645386 0.19269999861717224 -0.39590001106262207 -0.8978999853134155
          0.9995999932289124 -0.025599999353289604 -0.010700000450015068 0.9937999844551086 -0.030300000682473183 -0.10700000077486038
          0.9955000281333923 -0.02669999934732914 -0.09109999984502792 0.010999999940395355 -0.9889000058174133 -0.148499995470047
          -0.03539999946951866 -0.9879999756813049 -0.15060000121593475 -0.032999999821186066 -0.9941999912261963 -0.10239999741315842
          0.6628000140190125 0.17960000038146973 0.7269999980926514 0.5669999718666077 0.2989000082015991 0.7675999999046326
          0.6172999739646912 0.15129999816417694 0.7720999717712402 -0.8518000245094299 -0.08720000088214874 -0.5166000127792358
          -0.8526999950408936 -0.12020000070333481 -0.508400022983551 -0.8080999851226807 -0.210099995136261 -0.5503000020980835
          -0.15610000491142273 -0.7371000051498413 0.6575000286102295 -0.20960000157356262 -0.660099983215332 0.7213000059127808
          -0.07000000029802322 -0.5684000253677368 0.8197000026702881 0.5734999775886536 -0.541700005531311 0.6146000027656555
          0.4602000117301941 -0.522599995136261 0.7177000045776367 0.6111999750137329 -0.5659000277519226 0.5533000230789185
          -0.5134000182151794 -0.25130000710487366 0.8205000162124634 -0.4684999883174896 -0.33959999680519104 0.8155999779701233
          -0.3199000060558319 -0.489300012588501 0.8112999796867371 0.9904999732971191 0.13439999520778656 0.02810000069439411
          0.9941999912261963 0.07609999924898148 0.0763000026345253 0.9915000200271606 0.12540000677108765 -0.033900000154972076
          0.10719999670982361 -0.12880000472068787 -0.9858999848365784 0.0640999972820282 -0.17470000684261322 -0.9825000166893005
          0.05469999834895134 -0.11540000140666962 -0.9918000102043152 -0.9574999809265137 0.01140000019222498 -0.28839999437332153
          -0.876800000667572 0.15240000188350677 -0.4560000002384186 -0.8960999846458435 0.04659999907016754 -0.4413999915122986
          0.5672000050544739 -0.5108000040054321 0.6460999846458435 0.7681000232696533 -0.22040000557899475 0.6011999845504761
          0.739799976348877 -0.412200003862381 0.5318999886512756 0.7760000228881836 -0.6255999803543091 0.08020000159740448
          0.9031999707221985 -0.29089999198913574 -0.3156999945640564 0.1193000003695488 -0.2386000007390976 -0.9638000130653381
          0.650600016117096 0.007899999618530273 -0.7594000101089478 0.22300000488758087 0.20260000228881836 -0.953499972820282
          -0.7885000109672546 -0.595300018787384 -0.15469999611377716 -0.8626000285148621 -0.155799999833107 -0.4812999963760376
          -0.9402999877929688 0.3034000098705292 -0.15440000593662262 -0.8758999705314636 -0.4625999927520752 -0.13729999959468842
          -0.7371000051498413 -0.5715000033378601 -0.36059999465942383 -0.4537000060081482 -0.8500999808311462 -0.26739999651908875
          0.046300001442432404 -0.9843999743461609 -0.1695999950170517 0.10660000145435333 -0.7677000164985657 -0.6319000124931335
          -0.9563000202178955 -0.21960000693798065 0.1931000053882599 -0.9606000185012817 -0.2727000117301941 0.054099999368190765
          -0.9592000246047974 -0.22290000319480896 0.17399999499320984 -0.2045000046491623 0.8098000288009644 0.5498999953269958
          -0.08330000191926956 0.8514999747276306 0.5177000164985657 -0.06700000166893005 0.7914000153541565 0.607699990272522
          0.9573000073432922 0.07249999791383743 0.2800000011920929 0.9114000201225281 0.07760000228881836 0.4041000008583069
          0.8978000283241272 0.11990000307559967 0.4237000048160553 0.2387000024318695 -0.21649999916553497 -0.9466999769210815
          0.3377000093460083 -0.21369999647140503 -0.9165999889373779 0.2117999941110611 -0.211899995803833 -0.9541000127792358
          -0.9970999956130981 0.012299999594688416 0.07490000128746033 -0.984499990940094 -0.01899999938905239 0.17440000176429749
          -0.9980000257492065 -0.04230000078678131 0.04619999974966049 -0.00430000014603138 -0.1550000011920929 -0.9879000186920166
          -0.03189999982714653 -0.1842000037431717 -0.9824000000953674 -0.01640000008046627 -0.17960000038146973 -0.9836000204086304
          -0.15950000286102295 0.20250000059604645 0.9661999940872192 -0.18610000610351562 0.2101999968290329 0.9598000049591064
          -0.18799999356269836 0.18930000066757202 0.9638000130653381 -0.6933000087738037 0.014399999752640724 0.7204999923706055
          -0.757099986076355 -0.028999999165534973 0.6525999903678894 -0.7067999839782715 0.05380000174045563 0.7053999900817871
          -0.9645000100135803 -0.2628999948501587 -0.02539999969303608 -0.9419999718666077 -0.3102000057697296 -0.1282999962568283
          -0.9143000245094299 -0.38679999113082886 -0.11980000138282776 -0.5324000120162964 0.4918000102043152 0.6890000104904175
          -0.6208000183105469 0.5665000081062317 0.5418999791145325 -0.5296000242233276 0.5230000019073486 0.6678000092506409
          0.5656999945640564 -0.7214999794960022 0.3993000090122223 0.3197000026702881 -0.7580000162124634 0.5685999989509583
          0.5364999771118164 -0.7257999777793884 0.43059998750686646 0.12530000507831573 -0.7886000275611877 0.6021000146865845
          0.22689999639987946 -0.7307999730110168 0.6438000202178955 -0.11079999804496765 -0.9932000041007996 0.035100001841783524
          -0.06239999830722809 -0.9973999857902527 -0.0364999994635582 -0.05090000107884407 -0.9955999851226807 -0.07850000262260437
          0.1476999968290329 0.21770000457763672 0.9648000001907349 0.17800000309944153 0.22470000386238098 0.9580000042915344
          0.156700000166893 0.23100000619888306 0.9602000117301941 0.45910000801086426 0.14740000665187836 0.8761000037193298
          0.6410999894142151 0.12770000100135803 0.7566999793052673 0.48660001158714294 0.11879999935626984 0.8654999732971191
          0.9661999940872192 0.1599999964237213 -0.20229999721050262 0.9724000096321106 0.11789999902248383 -0.2012999951839447
          0.9732000231742859 0.19930000603199005 -0.11469999700784683 0.25870001316070557 0.0731000006198883 0.9631999731063843
          0.29249998927116394 0.041099999099969864 0.9553999900817871 0.21080000698566437 0.12690000236034393 0.9692999720573425
          0.8309999704360962 0.0729999989271164 -0.5515000224113464 0.8788999915122986 0.040800001472234726 -0.47519999742507935
          0.8583999872207642 0.1784999966621399 -0.48089998960494995 0.7975000143051147 -0.4927000105381012 0.3483999967575073
          0.8136000037193298 -0.47749999165534973 0.33169999718666077 0.8090000152587891 -0.43479999899864197 0.39559999108314514
          -0.9873999953269958 -0.05389999970793724 -0.14869999885559082 -0.9513999819755554 -0.05130000039935112 -0.3037000000476837
          -0.4754999876022339 0.8476999998092651 -0.23520000278949738 0.2847999930381775 -0.4657999873161316 -0.8378000259399414
          0.590499997138977 -0.47920000553131104 -0.649399995803833 0.39239999651908875 -0.2904999852180481 -0.8726999759674072
          0.9387000203132629 -0.2547000050544739 0.23250000178813934 0.9556000232696533 0.15330000221729279 0.2517000138759613
          0.992900013923645 -0.027400000020861626 0.11559999734163284 0.3176000118255615 -0.7251999974250793 0.6110000014305115
          0.535099983215332 -0.758400022983551 0.37220001220703125 0.6711000204086304 -0.6625000238418579 0.3327000141143799
          0.04089999943971634 -0.29269999265670776 -0.955299973487854 -0.188400000333786 -0.9643999934196472 -0.18559999763965607
          0.19580000638961792 -0.6765999794006348 -0.7098000049591064 0.8044000267982483 0.3522999882698059 -0.478300005197525
          0.6938999891281128 0.4876999855041504 -0.5297999978065491 0.9064000248908997 0.18299999833106995 -0.3806000053882599
          0.9728999733924866 0.21330000460147858 -0.08940000087022781 0.9588000178337097 0.21960000693798065 -0.18029999732971191
          0.9570000171661377 0.28679999709129333 -0.04410000145435333 -0.9045000076293945 -0.16979999840259552 -0.3912999927997589
          -0.9072999954223633 -0.18850000202655792 -0.3758000135421753 -0.9545000195503235 -0.16580000519752502 -0.24799999594688416
          -0.8065000176429749 0.07750000059604645 0.5861999988555908 -0.8603000044822693 0.0706000030040741 0.504800021648407
          -0.7376999855041504 0.07490000128746033 0.6708999872207642 -0.07029999792575836 0.4438000023365021 0.8932999968528748
          0.06909999996423721 0.5016999840736389 0.8622999787330627 -0.19769999384880066 0.32710000872612 0.9240999817848206
          -0.0722000002861023 -0.4587000012397766 -0.8855999708175659 0.11129999905824661 -0.3208000063896179 -0.9405999779701233
          -0.022099999710917473 -0.26660001277923584 -0.9635000228881836 0.41620001196861267 0.1451999992132187 0.897599995136261
          0.399399995803833 0.17329999804496765 0.9002000093460083 0.44670000672340393 0.15960000455379486 0.880299985408783
          0.8740000128746033 0.17970000207424164 0.4514000117778778 0.7803999781608582 0.2013999968767166 0.5918999910354614
          0.8356000185012817 0.17000000178813934 0.5224000215530396 -0.3578000068664551 0.3580000102519989 0.8623999953269958
          -0.42800000309944153 0.22669999301433563 0.8748999834060669 -0.31290000677108765 0.24089999496936798 0.9186999797821045
          -0.9128000140190125 0.3831999897956848 -0.14139999449253082 -0.9634000062942505 0.2583000063896179 -0.07180000096559525
          -0.9223999977111816 0.37599998712539673 -0.08810000121593475 -0.9900000095367432 -0.07859999686479568 0.11739999800920486
          -0.7813000082969666 -0.4296000003814697 0.4528000056743622 -0.9376999735832214 -0.3052999973297119 0.16599999368190765
          0.8345999717712402 -0.38749998807907104 0.39149999618530273 0.11559999734163284 -0.9745000004768372 -0.19220000505447388
          0.039000000804662704 -0.9764000177383423 -0.21230000257492065 -0.04729999974370003 -0.9714999794960022 -0.23240000009536743
          -0.053199999034404755 -0.9962999820709229 -0.0681999996304512 -0.04320000112056732 -0.9962999820709229 -0.0746999979019165
          -0.049300000071525574 -0.9955000281333923 -0.08100000023841858 -0.025499999523162842 -0.11089999973773956 -0.9934999942779541
          0.01850000023841858 -0.09399999678134918 -0.9954000115394592 -0.013299999758601189 -0.06400000303983688 -0.9979000091552734
          -0.8528000116348267 0.16009999811649323 -0.49709999561309814 -0.7171000242233276 0.0414000004529953 -0.6956999897956848
          -0.8228999972343445 0.033900000154972076 -0.5672000050544739 0.9692000150680542 0.24160000681877136 -0.04809999838471413
          0.9624999761581421 0.2451000064611435 -0.11649999767541885 0.930899977684021 0.29260000586509705 -0.21850000321865082
          -0.3328000009059906 0.9025999903678894 -0.27320000529289246 -0.11590000241994858 0.9722999930381775 -0.2029999941587448
          -0.24279999732971191 0.9269000291824341 -0.28600001335144043 -0.10580000281333923 -0.013100000098347664 -0.9943000078201294
          0.019500000402331352 -0.07880000025033951 -0.9966999888420105 -0.20469999313354492 -0.2533999979496002 -0.9455000162124634
          0.24709999561309814 0.7742999792098999 -0.5825999975204468 0.301800012588501 0.8557999730110168 -0.420199990272522
          0.04600000008940697 0.849399983882904 -0.5256999731063843 -0.9031999707221985 -0.12409999966621399 -0.4108999967575073
          -0.8399999737739563 -0.07280000299215317 -0.5376999974250793 -0.7184000015258789 -0.13089999556541443 -0.6832000017166138
          -0.5480999946594238 -0.23319999873638153 -0.8032000064849854 -0.48919999599456787 -0.28529998660087585 -0.8241999745368958
          -0.4311000108718872 -0.23000000417232513 -0.8725000023841858 0.3353999853134155 -0.2865000069141388 -0.8974999785423279
          0.22990000247955322 -0.33009999990463257 -0.9154999852180481 -0.7954999804496765 -0.18289999663829803 -0.5777000188827515
          -0.7867000102996826 -0.17159999907016754 -0.5929999947547913 -0.7903000116348267 -0.18719999492168427 -0.5835000276565552
          0.8201000094413757 -0.4002000093460083 0.4090000092983246 0.18770000338554382 -0.5038999915122986 0.8431000113487244
          -0.4523000121116638 -0.2410999983549118 0.8586999773979187 0.6413000226020813 -0.39149999618530273 -0.6599000096321106
          0.7402999997138977 -0.18279999494552612 -0.6470000147819519 0.4447000026702881 -0.18870000541210175 -0.8755999803543091
          -0.824400007724762 -0.42640000581741333 -0.37229999899864197 -0.6848000288009644 -0.3596000075340271 -0.633899986743927
          -0.7414000034332275 -0.5755000114440918 -0.3452000021934509 -0.953000009059906 -0.29910001158714294 0.04830000177025795
          -0.9424999952316284 -0.3337000012397766 -0.016599999740719795 -0.9646999835968018 -0.2572000026702881 0.057100001722574234
          -0.7440999746322632 0.10080000013113022 -0.6603999733924866 -0.6312000155448914 -0.7002999782562256 -0.3334999978542328
          0.35589998960494995 -0.13429999351501465 -0.9247999787330627 -0.07029999792575836 0.07890000194311142 -0.9944000244140625
          0.060100000351667404 0.4797999858856201 -0.8752999901771545 -0.41179999709129333 0.43860000371932983 -0.798799991607666
          0.3578999936580658 0.12700000405311584 0.9251000285148621 0.8274999856948853 -0.4009000062942505 0.39320001006126404
          -0.015300000086426735 -0.051100000739097595 0.9986000061035156 -0.60589998960495 0.7771999835968018 -0.1695999950170517
          0.34850001335144043 0.9358999729156494 -0.051600001752376556 -0.7401000261306763 0.6675000190734863 -0.08250000327825546
          -0.061799999326467514 -0.22579999268054962 0.9721999764442444 -0.1784999966621399 0.445499986410141 0.8773000240325928
          -0.10819999873638153 0.4350999891757965 0.8938999772071838 -0.9958999752998352 0.04580000042915344 0.0778999999165535
          0.22789999842643738 0.9121000170707703 0.3409000039100647 -0.29010000824928284 0.47540000081062317 0.8306000232696533
          -0.9052000045776367 -0.3815999925136566 -0.18690000474452972 -0.5960000157356262 0.13189999759197235 -0.7921000123023987
          -0.866599977016449 -0.23770000040531158 -0.43869999051094055 -0.6693000197410583 0.6876000165939331 0.28130000829696655
          0.565500020980835 -0.08190000057220459 -0.8205999732017517 0.5218999981880188 -0.15070000290870667 -0.8396000266075134
          0.49639999866485596 -0.048500001430511475 -0.8666999936103821 -0.642300009727478 -0.0034000000450760126 0.7664999961853027
          -0.4860999882221222 -0.010499999858438969 0.8737999796867371 -0.5759999752044678 0.14069999754428864 0.8052999973297119
          0.7562999725341797 -0.37790000438690186 -0.5339999794960022 0.7580000162124634 -0.35589998960494995 -0.5467000007629395
          0.6708999872207642 -0.39649999141693115 -0.6266999840736389 -0.9143999814987183 0.3709000051021576 0.16210000216960907
          -0.8568000197410583 0.4287000000476837 0.2865000069141388 -0.8855999708175659 0.44679999351501465 0.1265999972820282
          0.06379999965429306 -0.08950000256299973 -0.9939000010490417 0.0471000000834465 -0.10450000315904617 -0.993399977684021
          0.1624000072479248 -0.019899999722838402 -0.9865000247955322 0.265500009059906 -0.5486999750137329 -0.7928000092506409
          0.24539999663829803 -0.3301999866962433 -0.9114999771118164 0.12039999663829803 -0.7759000062942505 -0.6191999912261963
          -0.07180000096559525 0.4943000078201294 0.8662999868392944 0.03999999910593033 0.5508000254631042 0.8337000012397766
          -0.04349999874830246 0.5364999771118164 0.8428000211715698 0.7603999972343445 0.4246000051498413 0.49140000343322754
          0.7615000009536743 0.5019999742507935 0.4099999964237213 0.8242999911308289 0.43290001153945923 0.36489999294281006
          -0.5742999911308289 0.5788999795913696 0.5788999795913696 -0.7092000246047974 0.7006999850273132 0.07729999721050262
          -0.689300000667572 0.5152000188827515 0.5092999935150146 0.14390000700950623 0.09709999710321426 0.9847999811172485
          0.17810000479221344 0.07559999823570251 0.9811000227928162 0.04280000180006027 0.1527000069618225 0.9872999787330627
          0.14000000059604645 0.9527000188827515 -0.26969999074935913 0.07020000368356705 0.9629999995231628 -0.26030001044273376
          0.07320000231266022 0.945900022983551 -0.31619998812675476 -0.4927000105381012 0.7864999771118164 0.3723999857902527
          -0.5443999767303467 0.789900004863739 0.28220000863075256 -0.5841000080108643 0.7246000170707703 0.36579999327659607
          0.2973000109195709 -0.954800009727478 0.00039999998989515007 0.5594000220298767 -0.8258000016212463 -0.0714000016450882
          0.8022000193595886 -0.5884000062942505 0.1014999970793724 0.02850000001490116 -0.9836999773979187 -0.1777999997138977
          0.7179999947547913 -0.26339998841285706 -0.6442999839782715 0.6262999773025513 -0.1753000020980835 -0.7595999836921692
          0.7207000255584717 -0.33880001306533813 -0.6049000024795532 0.7921000123023987 -0.04309999942779541 0.6089000105857849
          0.9165999889373779 -0.10000000149011612 0.3871000111103058 0.9056000113487244 -0.10140000283718109 0.41190001368522644
          -0.989799976348877 0.13519999384880066 0.04580000042915344 -0.9975000023841858 0.05469999834895134 -0.04479999840259552
          -0.9872999787330627 0.15600000321865082 -0.03060000017285347 -0.6861000061035156 0.27160000801086426 0.6748999953269958
          -0.5637999773025513 0.30790001153945923 0.7663000226020813 -0.6280999779701233 0.26429998874664307 0.7318999767303467
          0.9901000261306763 -0.031099999323487282 -0.1371999979019165 0.9739999771118164 -0.07079999893903732 -0.2152000069618225
          0.5911999940872192 -0.125 -0.7968000173568726 0.527899980545044 -0.131400004029274 -0.8391000032424927
          0.4975999891757965 -0.14399999380111694 -0.855400025844574 0.3100000023841858 -0.3098999857902527 0.8988000154495239
          0.16089999675750732 -0.30399999022483826 0.9390000104904175 0.2222999930381775 -0.28290000557899475 0.9330000281333923
          -0.27649998664855957 -0.7696999907493591 0.5755000114440918 0.09019999951124191 -0.9175999760627747 0.3871999979019165
          -0.10980000346899033 -0.9803000092506409 0.16410000622272491 0.4722999930381775 0.8783000111579895 -0.07490000128746033
          0.6096000075340271 0.7853999733924866 0.1071000024676323 0.5123999714851379 0.8343999981880188 0.2029999941587448
          -0.6075999736785889 0.3734999895095825 0.7009999752044678 -0.6310999989509583 0.428600013256073 0.6464999914169312
          0.05730000138282776 0.3711000084877014 0.926800012588501 -0.8273000121116638 -0.5019999742507935 -0.25220000743865967
          0.012799999676644802 0.0003000000142492354 -0.9998999834060669 0.4115000069141388 0.24379999935626984 -0.8781999945640564
          0.12939999997615814 0.34209999442100525 -0.9307000041007996 0.1362999975681305 0.1972000002861023 0.97079998254776
          0.06120000034570694 0.210099995136261 0.9757999777793884 0.1648000031709671 0.20579999685287476 0.9646000266075134
          -0.02449999935925007 0.17069999873638153 0.9850000143051147 -0.1307000070810318 0.20819999277591705 0.9692999720573425
          -0.03500000014901161 0.2198999971151352 0.9749000072479248 0.9902999997138977 -0.13410000503063202 -0.03519999980926514
          0.9939000010490417 -0.09790000319480896 -0.05090000107884407 0.9943000078201294 -0.10180000215768814 -0.03009999915957451
          0.6804999709129333 0.22509999573230743 0.6973000168800354 0.6308000087738037 0.2694000005722046 0.7276999950408936
          0.5662999749183655 0.23659999668598175 0.7894999980926514 -0.04170000180602074 -0.5157999992370605 -0.8557000160217285
          -0.1363999992609024 -0.4047999978065491 -0.90420001745224 -0.21459999680519104 -0.4794999957084656 -0.8508999943733215
          -0.8349000215530396 -0.25760000944137573 0.4864000082015991 -0.6542999744415283 -0.41499999165534973 0.6322000026702881
          -0.7799000144004822 -0.13410000503063202 0.6114000082015991 -0.22310000658035278 -0.2304999977350235 -0.9472000002861023
          -0.3321000039577484 -0.24709999561309814 -0.9103000164031982 -0.3776000142097473 -0.23739999532699585 -0.8949999809265137
          -0.828499972820282 -0.13230000436306 -0.5442000031471252 -0.6625999808311462 -0.1754000037908554 -0.7282000184059143
          -0.6798999905586243 -0.025499999523162842 -0.7328000068664551 -0.18649999797344208 0.9750000238418579 -0.12049999833106995
          -0.2409999966621399 0.9642999768257141 -0.10989999771118164 -0.1843000054359436 0.9682000279426575 -0.16940000653266907
          0.8507999777793884 0.5212000012397766 0.06679999828338623 0.7522000074386597 0.6230999827384949 0.21449999511241913
          0.8956999778747559 0.444599986076355 0.007699999958276749 -0.029999999329447746 -0.9957000017166138 -0.08799999952316284
          0.010900000110268593 -0.9986000061035156 -0.051100000739097595 -0.029400000348687172 -0.9965999722480774 -0.0771000012755394
          0.034699998795986176 -0.9947999715805054 0.09610000252723694 -0.07360000163316727 -0.9961000084877014 -0.048500001430511475
          -0.12049999833106995 -0.9919000267982483 0.039799999445676804 0.45969998836517334 0.42329999804496765 0.7807000279426575
          0.20990000665187836 -0.9728000164031982 0.09809999912977219 0.5109000205993652 -0.8582000136375427 0.05000000074505806
          0.03680000081658363 -0.9634000062942505 0.2655999958515167 0.8034999966621399 0.20659999549388885 0.5583000183105469
          0.8238000273704529 0.5489000082015991 -0.14149999618530273 0.9689000248908997 0.24549999833106995 0.031700000166893005
          0.13699999451637268 0.349700003862381 0.926800012588501 0.22349999845027924 -0.8370000123977661 0.49950000643730164
          0.05999999865889549 -0.7572000026702881 0.6503999829292297 0.3352999985218048 -0.590499997138977 0.7340999841690063
          0.4968999922275543 0.7145000100135803 -0.4925000071525574 0.3382999897003174 0.609499990940094 -0.7170000076293945
          0.335099995136261 0.6732000112533569 -0.6592000126838684 -0.904699981212616 -0.32580000162124634 0.274399995803833
          -0.388700008392334 -0.6593000292778015 0.6435999870300293 -0.7809000015258789 -0.48980000615119934 0.387800008058548
          0.08879999816417694 0.698199987411499 0.7103999853134155 -0.19509999454021454 0.9743000268936157 -0.11240000277757645
          0.3174999952316284 0.8916000127792358 0.3228999972343445 0.5586000084877014 0.8281999826431274 0.045499999076128006
          -0.12790000438690186 0.8762000203132629 -0.46459999680519104 0.030799999833106995 0.8815000057220459 -0.47110000252723694
          -0.928600013256073 -0.1234000027179718 -0.3499000072479248 -0.8033999800682068 -0.125 -0.5821999907493591
          -0.7850000262260437 -0.1453000009059906 -0.6022999882698059 -0.7591999769210815 -0.14069999754428864 -0.6353999972343445
          0.09650000184774399 -0.19429999589920044 -0.9761999845504761 0.1080000028014183 -0.1867000013589859 -0.9764999747276306
          0.039000000804662704 -0.18140000104904175 -0.9825999736785889 -0.07959999889135361 -0.3269999921321869 -0.9416999816894531
          -0.031300000846385956 -0.5870000123977661 -0.808899998664856 0.24650000035762787 -0.17630000412464142 -0.953000009059906
          0.7572000026702881 -0.1843000054359436 0.6266000270843506 0.5507000088691711 0.19220000505447388 0.8123000264167786
          0.7390999794006348 0.47209998965263367 0.4805999994277954 0.15449999272823334 0.569100022315979 0.8076000213623047
          0.2702000141143799 0.3709000051021576 0.8884999752044678 -0.25189998745918274 0.2944999933242798 0.9218999743461609