<?xml version="1.0"?>
<VTKFile type="PolyData" version="0.1" byte_order="LittleEndian" header_type="UInt32" compressor="vtkZLibDataCompressor">
  <PolyData>
    <FieldData>
      <Array type="String" Name="MaterialNames" NumberOfTuples="1" format="ascii">
        109 97 116 101 114 105 97 108 95 48 0
      </Array>
      <Array type="String" Name="MaterialLibraries" NumberOfTuples="1" format="ascii">
        109 97 116 101 114 105 97 108 46 109 116 108 0
      </Array>
    </FieldData>
    <Piece NumberOfPoints="19470" NumberOfVerts="0" NumberOfLines="0" NumberOfStrips="0" NumberOfPolys="39035">
      <PointData Normals="Normals">
        <DataArray type="Float32" Name="Normals" NumberOfComponents="3" format="ascii" RangeMin="0.9999257157674142" RangeMax="1.0000818673783225">
          0.9624000191688538 -0.24500000476837158 -0.1168999969959259 0.9718999862670898 -0.23420000076293945 0.023000000044703484
          0.9936000108718872 -0.09009999781847 0.06870000064373016 0.46700000762939453 -0.14470000565052032 -0.8723999857902527
          0.5159000158309937 -0.15150000154972076 -0.8432000279426575 0.429500013589859 -0.13019999861717224 -0.8935999870300293
          -0.5199999809265137 0.28139999508857727 0.8065000176429749 -0.48410001397132874 0.27140000462532043 0.8317999839782715
          -0.4659000039100647 0.2013999968767166 0.8615999817848206 -0.6168000102043152 -0.05130000039935112 0.7853999733924866
          -0.6710000038146973 -0.03449999913573265 0.7405999898910522 -0.7003999948501587 -0.06719999760389328 0.7106000185012817
          0.04129999876022339 0.1404000073671341 -0.9891999959945679 -0.0066999997943639755 0.12700000405311584 -0.9919000267982483
          0.14910000562667847 0.20059999823570251 -0.9682999849319458 -0.10700000077486038 -0.7452999949455261 0.6581000089645386
          0.054999999701976776 -0.9733999967575073 0.2224999964237213 0.04690000042319298 -0.8277000188827515 0.5591999888420105
          0.1679999977350235 0.8729000091552734 0.45809999108314514 0.16580000519752502 0.9056000113487244 0.390500009059906
          0.1875 0.8919000029563904 0.4115000069141388 -0.02889999933540821 -0.23360000550746918 0.9718999862670898
          -0.08399999886751175 -0.21089999377727509 0.9739000201225281 -0.0966000035405159 -0.1882999986410141 0.9772999882698059
          -0.9377999901771545 0.1509000062942505 -0.3125999867916107 -0.9480000138282776 0.11909999698400497 -0.2953000068664551
          -0.932699978351593 0.13529999554157257 -0.3343000113964081 0.07129999995231628 -0.2515999972820282 0.9652000069618225
          0.08009999990463257 -0.06430000066757202 0.994700014591217 0.1437000036239624 -0.2921000123023987 0.9455000162124634
          -0.8902000188827515 0.19979999959468842 -0.40939998626708984 -0.6883999705314636 0.1436000019311905 -0.7110000252723694
          -0.7282000184059143 0.17399999499320984 -0.6628999710083008 0.9394999742507935 -0.2386000007390976 0.24580000340938568
          0.9564999938011169 -0.17329999804496765 0.23469999432563782 0.9146000146865845 -0.2020999938249588 0.35010001063346863
          -0.8111000061035156 -0.2712000012397766 0.5182999968528748 -0.7437000274658203 -0.2045000046491623 0.6365000009536743
          -0.7585999965667725 -0.27469998598098755 0.5907999873161316 0.21860000491142273 0.544700026512146 -0.8097000122070312
          0.19040000438690186 0.6177999973297119 -0.7630000114440918 0.1899999976158142 0.5491999983787537 -0.8137999773025513
          -0.8924999833106995 0.44859999418258667 -0.04600000008940697 -0.9569000005722046 0.2849999964237213 -0.05550000071525574
          -0.9714999794960022 0.23569999635219574 -0.024800000712275505 0.7315999865531921 0.3319999873638153 0.5953999757766724
          0.7360000014305115 0.30959999561309814 0.6019999980926514 0.6930999755859375 0.33410000801086426 0.638700008392334
          0.9546999931335449 -0.23909999430179596 -0.1768999993801117 0.9679999947547913 -0.24040000140666962 -0.07209999859333038
          0.9526000022888184 -0.2425999939441681 -0.18359999358654022 -0.02590000070631504 -0.963100016117096 0.2678000032901764
          -0.29350000619888306 -0.9488999843597412 -0.11590000241994858 -0.4683000147342682 -0.8765000104904175 0.11140000075101852
          0.3280999958515167 0.1673000007867813 -0.9297000169754028 0.305400013923645 0.2070000022649765 -0.9294000267982483
          0.3003000020980835 0.29120001196861267 -0.90829998254776 -0.9663000106811523 -0.10509999841451645 -0.23489999771118164
          -0.9190999865531921 0.3869999945163727 0.0738999992609024 -0.9707000255584717 0.09130000323057175 0.2223999947309494
          0.8030999898910522 0.38449999690055847 -0.4551999866962433 0.8611000180244446 0.27239999175071716 -0.4293000102043152
          0.6976000070571899 0.6110000014305115 -0.374099999666214 -0.7764999866485596 -0.6291000247001648 -0.0357000008225441
          -0.8575000166893005 -0.48750001192092896 -0.1647000014781952 -0.8478999733924866 -0.4848000109195709 -0.21480000019073486
          -0.6352999806404114 0.44029998779296875 0.6344000101089478 -0.7128000259399414 0.4081999957561493 0.5702999830245972
          -0.7854999899864197 0.42170000076293945 0.4528000056743622 0.7021999955177307 -0.10010000318288803 0.7049000263214111
          0.7580000162124634 -0.10320000350475311 0.64410001039505 0.583299994468689 -0.05860000103712082 0.8101000189781189
          0.9178000092506409 0.03500000014901161 -0.3953999876976013 0.9398000240325928 0.03240000084042549 -0.3400999903678894
          0.9363999962806702 0.15719999372959137 -0.31369999051094055 -0.8450999855995178 -0.12839999794960022 0.5189999938011169
          -0.8517000079154968 -0.31029999256134033 0.42239999771118164 -0.7781000137329102 -0.1615999937057495 0.6069999933242798
          -0.9667999744415283 0.17170000076293945 -0.1890999972820282 -0.9623000025749207 0.18230000138282776 -0.20190000534057617
          -0.9467999935150146 0.16820000112056732 -0.2745000123977661 -0.32100000977516174 0.05270000174641609 0.9455999732017517
          -0.39809998869895935 0.041600000113248825 0.9164000153541565 -0.4056999981403351 0.07739999890327454 0.9107000231742859
          -0.0925000011920929 0.2653999924659729 0.9596999883651733 -0.17399999499320984 0.014499999582767487 0.9846000075340271
          -0.11230000108480453 0.26669999957084656 0.9571999907493591 -0.8073999881744385 0.4302999973297119 -0.40369999408721924
          -0.6230000257492065 0.45879998803138733 -0.6334999799728394 -0.6177999973297119 0.633400022983551 -0.4659999907016754
          0.9836000204086304 -0.17489999532699585 -0.043299999088048935 0.953499972820282 -0.25119999051094055 0.1662999987602234
          0.9753999710083008 -0.21080000698566437 0.0640999972820282 -0.9625999927520752 0.26969999074935913 -0.0272000003606081
          -0.9696999788284302 0.22100000083446503 -0.1039000004529953 -0.9599000215530396 0.27730000019073486 -0.040699999779462814
          0.8682000041007996 -0.4894999861717224 -0.08089999854564667 0.9312000274658203 -0.3294000029563904 -0.1559000015258789
          0.878600001335144 -0.4422000050544739 -0.18029999732971191 0.48089998960494995 0.44429999589920044 -0.7559000253677368
          0.4812000095844269 0.5239999890327454 -0.7027000188827515 0.583899974822998 0.22589999437332153 -0.7797999978065491
          -0.13120000064373016 0.10429999977350235 -0.98580002784729 -0.3330000042915344 0.017000000923871994 -0.942799985408783
          -0.39800000190734863 0.06629999727010727 -0.9150000214576721 -0.04050000011920929 -0.016599999740719795 0.9990000128746033
          0.13420000672340393 -0.053599998354911804 0.9894999861717224 0.11249999701976776 -0.012600000016391277 0.9936000108718872
          -0.3837999999523163 0.10180000215768814 -0.9178000092506409 -0.3294999897480011 0.07859999686479568 -0.9409000277519226
          -0.30059999227523804 0.02800000086426735 -0.9532999992370605 0.5989999771118164 0.12110000103712082 0.7915999889373779
          0.5550000071525574 0.014100000262260437 0.8317999839782715 0.7337999939918518 -0.03269999846816063 0.678600013256073
          0.8022000193595886 -0.42820000648498535 0.41600000858306885 0.7921000123023987 -0.41850000619888306 0.44429999589920044
          0.8471999764442444 -0.46070000529289246 0.26460000872612 0.5932999849319458 -0.3950999975204468 0.7013000249862671
          0.6187999844551086 -0.4438000023365021 0.6481000185012817 0.640999972820282 -0.46219998598098755 0.6126999855041504
          0.15320000052452087 -0.6474000215530396 -0.7465999722480774 -0.16269999742507935 -0.7422000169754028 -0.6500999927520752
          -0.1889999955892563 -0.5687999725341797 -0.8004999756813049 -0.9017999768257141 -0.30970001220703125 -0.3012999892234802
          -0.9046000242233276 -0.3452000021934509 -0.2500999867916107 -0.9668999910354614 -0.22460000216960907 -0.12139999866485596
          -0.5738999843597412 0.45680001378059387 -0.6796000003814697 -0.5792999863624573 0.4487999975681305 -0.6804999709129333
          -0.453900009393692 0.6244999766349792 -0.6355999708175659 0.09440000355243683 -0.9621000289916992 0.2556999921798706
          -0.16910000145435333 -0.9830999970436096 -0.06989999860525131 -0.2069000005722046 -0.9682999849319458 -0.14000000059604645
          -0.21809999644756317 0.23589999973773956 0.9470000267028809 -0.19750000536441803 0.38929998874664307 0.8996999859809875
          -0.18050000071525574 0.4368000030517578 0.8812000155448914 0.31139999628067017 -0.3578000068664551 0.880299985408783
          0.38040000200271606 -0.3887999951839447 0.8391000032424927 0.35429999232292175 -0.45899999141693115 0.8147000074386597
          0.29840001463890076 -0.8406999707221985 -0.45179998874664307 0.2842999994754791 -0.8999000191688538 -0.33059999346733093
          0.5424000024795532 -0.7990999817848206 -0.25920000672340393 -0.10760000348091125 -0.9824000000953674 0.15240000188350677
          -0.25099998712539673 -0.9275000095367432 0.2768999934196472 -0.02590000070631504 -0.9994999766349792 -0.019600000232458115
          0.03139999881386757 0.9757999777793884 0.21660000085830688 0.0754999965429306 0.9696000218391418 0.23280000686645508
          0.09600000083446503 0.9952999949455261 0.013500000350177288 -0.9610999822616577 0.2387000024318695 0.13899999856948853
          -0.9714000225067139 0.22689999639987946 0.07039999961853027 -0.9746000170707703 0.1996999979019165 0.10140000283718109
          -0.14920000731945038 -0.09690000116825104 -0.984000027179718 -0.0778999999165535 -0.13740000128746033 -0.9873999953269958
          -0.05609999969601631 -0.0868000015616417 -0.9945999979972839 -0.8903999924659729 0.1639000028371811 -0.4246000051498413
          -0.9470999836921692 0.1703999936580658 -0.2721000015735626 -0.9308000206947327 0.1762000024318695 -0.32019999623298645
          -0.8003000020980835 0.5734000205993652 0.17499999701976776 -0.7936000227928162 0.5795000195503235 0.18549999594688416
          -0.7786999940872192 0.5706999897956848 0.2606000006198883 -0.6200000047683716 0.6114000082015991 -0.4916999936103821
          -0.5367000102996826 0.4505999982357025 -0.7134000062942505 -0.6809999942779541 0.43299999833106995 -0.590499997138977
          -0.7864999771118164 0.4970000088214874 0.36649999022483826 -0.7915999889373779 0.4018999934196472 0.4602000117301941
          -0.7922999858856201 0.44670000672340393 0.4154999852180481 0.28690001368522644 -0.14159999787807465 -0.9473999738693237
          0.18029999732971191 -0.1290999948978424 -0.9750999808311462 0.20970000326633453 -0.18170000612735748 -0.9606999754905701
          0.0851999968290329 0.23589999973773956 0.9679999947547913 0.09960000216960907 -0.24639999866485596 0.9639999866485596
          0.42570000886917114 0.05959999933838844 0.902899980545044 -0.00989999994635582 -0.9998999834060669 -0.009200000204145908
          -0.05040000006556511 -0.9987000226974487 0.0020000000949949026 -0.02590000070631504 -0.9627000093460083 -0.26919999718666077
          -0.1225999966263771 -0.05510000139474869 -0.9908999800682068 -0.1573999971151352 -0.07349999994039536 -0.9847999811172485
          -0.486299991607666 -0.21160000562667847 -0.8478000164031982 -0.310699999332428 0.2500999867916107 0.9169999957084656
          -0.28450000286102295 0.32100000977516174 0.9032999873161316 -0.03440000116825104 -0.20149999856948853 0.9789000153541565
          0.09700000286102295 -0.979200005531311 0.17820000648498535 0.4745999872684479 -0.8187999725341797 0.3228999972343445
          0.3675000071525574 -0.8720999956130981 0.3230000138282776 0.052400000393390656 -0.6230000257492065 0.7804999947547913
          0.5564000010490417 0.5347999930381775 -0.6359999775886536 0.6956999897956848 0.43650001287460327 -0.5705000162124634
          0.59170001745224 0.5313000082969666 -0.6062999963760376 0.45669999718666077 -0.26840001344680786 -0.8482000231742859
          0.2849999964237213 -0.09969999641180038 -0.9532999992370605 0.6209999918937683 -0.19869999587535858 -0.7581999897956848
          -0.06700000166893005 0.2524999976158142 0.9653000235557556 -0.24869999289512634 0.41269999742507935 0.8762000203132629
          -0.188400000333786 -0.39890000224113464 -0.8974999785423279 -0.2824000120162964 -0.3330000042915344 -0.8996999859809875
          -0.11140000075101852 -0.34929999709129333 -0.9302999973297119 -0.4706999957561493 -0.8384000062942505 0.27480000257492065
          -0.44609999656677246 -0.8805999755859375 0.15960000455379486 -0.8562999963760376 -0.5023000240325928 -0.12070000171661377
          -0.4666999876499176 0.5357000231742859 -0.7037000060081482 -0.5842999815940857 0.5612999796867371 -0.5860999822616577
          -0.569599986076355 0.4984000027179718 -0.6535999774932861 0.6711000204086304 0.5167999863624573 -0.5315999984741211
          0.7117000222206116 0.5781999826431274 -0.39899998903274536 0.7031000256538391 0.6306999921798706 -0.32839998602867126
          0.35600000619888306 0.9325000047683716 -0.06040000170469284 0.4291999936103821 0.8805000185966492 -0.20110000669956207
          0.3853999972343445 0.8855000138282776 -0.2597000002861023 0.1412999927997589 0.23720000684261322 0.9610999822616577
          0.04039999842643738 0.26460000872612 0.9635000228881836 0.22280000150203705 0.24169999361038208 0.9444000124931335
          -0.4431000053882599 -0.14239999651908875 -0.8851000070571899 -0.5950000286102295 -0.08579999953508377 -0.7991999983787537
          -0.3928999900817871 -0.18029999732971191 -0.9017000198364258 0.14640000462532043 -0.02500000037252903 -0.9889000058174133
          0.18459999561309814 -0.05640000104904175 -0.9811999797821045 0.1956000030040741 -0.04989999905228615 -0.9793999791145325
          -0.12630000710487366 -0.9897000193595886 -0.06780000030994415 -0.05860000103712082 -0.9514999985694885 -0.3021000027656555
          -0.10029999911785126 -0.9509999752044678 -0.2924000024795532 -0.13609999418258667 -0.9894999861717224 0.04830000177025795
          0.4113999903202057 -0.9007999897003174 -0.13930000364780426 0.20550000667572021 -0.8949999809265137 -0.3959999978542328
          0.046300001442432404 -0.2515000104904175 -0.96670001745224 -0.399399995803833 -0.05700000002980232 -0.9150000214576721
          -0.13279999792575836 -0.219200000166893 -0.9666000008583069 -0.640500009059906 -0.0860000029206276 0.7631000280380249
          -0.6909000277519226 -0.2924000024795532 0.6610999703407288 -0.34360000491142273 -0.24770000576972961 0.9059000015258789
          -0.1395999938249588 -0.9763000011444092 0.16509999334812164 -0.35850000381469727 -0.7973999977111816 0.4855000078678131
          -0.04529999941587448 -0.7127000093460083 0.699999988079071 -0.9265000224113464 0.2924000024795532 -0.23680000007152557
          -0.9458000063896179 0.31940001249313354 0.05920000001788139 -0.9664999842643738 0.25589999556541443 0.016899999231100082
          -0.2896000146865845 0.09480000287294388 0.9524999856948853 -0.30390000343322754 0.09040000289678574 0.9484000205993652
          -0.29010000824928284 0.0860000029206276 0.9531000256538391 -0.17389999330043793 0.10320000350475311 0.9793000221252441
          -0.17569999396800995 0.11349999904632568 0.9779000282287598 -0.08990000188350677 0.10440000146627426 0.9904999732971191
          -0.9672999978065491 0.2393999993801117 -0.0843999981880188 -0.9469000101089478 0.1737000048160553 -0.2703999876976013
          -0.940500020980835 0.1809999942779541 -0.28769999742507935 0.9120000004768372 -0.14810000360012054 0.3824999928474426
          0.9652000069618225 -0.18330000340938568 0.1867000013589859 0.9549999833106995 -0.2012999951839447 0.21789999306201935
          0.6172000169754028 -0.0026000000070780516 0.7868000268936157 0.4997999966144562 0.06430000066757202 0.8637999892234802
          0.6492999792098999 -0.005100000184029341 0.7605000138282776 -0.9933000206947327 0.04019999876618385 -0.1080000028014183
          -0.973800003528595 0.22259999811649323 0.04659999907016754 -0.9663000106811523 0.027300000190734863 0.25600001215934753
          -0.3418999910354614 -0.8330000042915344 0.4350000023841858 -0.5849000215530396 -0.7480999827384949 0.31349998712539673
          -0.4174000024795532 -0.8880000114440918 0.1932000070810318 0.6880999803543091 -0.044599998742341995 0.7243000268936157
          0.6819000244140625 0.0940999984741211 0.7253999710083008 0.6639000177383423 -0.030300000682473183 0.7472000122070312
          -0.2434999942779541 -0.27889999747276306 0.9289000034332275 -0.3682999908924103 -0.18080000579357147 0.9120000004768372
          -0.37049999833106995 -0.31040000915527344 0.8754000067710876 -0.6477000117301941 0.02250000089406967 0.7616000175476074
          -0.9652000069618225 0.22419999539852142 0.13439999520778656 -0.5917999744415283 0.38999998569488525 0.7055000066757202
          0.5073999762535095 -0.7598999738693237 -0.40630000829696655 0.5234000086784363 -0.7634999752044678 -0.3783000111579895
          0.07519999891519547 -0.6438999772071838 -0.7613999843597412 0.3901999890804291 0.16220000386238098 -0.9063000082969666
          0.5401999950408936 0.14259999990463257 -0.8294000029563904 0.5012999773025513 0.14830000698566437 -0.8525000214576721
          0.7322999835014343 -0.10119999945163727 -0.6733999848365784 0.7365999817848206 -0.026599999517202377 -0.6758000254631042
          0.663100004196167 -0.08209999650716782 -0.7440000176429749 -0.21529999375343323 0.034299999475479126 -0.9758999943733215
          -0.2754000127315521 -0.01850000023841858 -0.9611999988555908 -0.3034000098705292 0.06459999829530716 -0.9506999850273132
          0.9782000184059143 -0.09529999643564224 0.1843000054359436 0.9890999794006348 -0.13840000331401825 -0.05009999871253967
          0.9851999878883362 -0.09139999747276306 -0.14480000734329224 -0.6195999979972839 -0.36320000886917114 0.6958000063896179
          -0.8075000047683716 -0.3743000030517578 0.45579999685287476 -0.753600001335144 -0.2720000147819519 0.5985000133514404
          0.23749999701976776 0.10220000147819519 0.9660000205039978 0.2770000100135803 0.21940000355243683 0.9355000257492065
          0.24860000610351562 0.09099999815225601 0.9642999768257141 -0.9117000102996826 0.3732999861240387 0.17139999568462372
          -0.9132999777793884 0.39820000529289246 0.08510000258684158 -0.9035999774932861 0.4284000098705292 0.00009999999747378752
          -0.4771000146865845 -0.02850000001490116 -0.8784000277519226 -0.2615000009536743 0.36489999294281006 -0.8935999870300293
          -0.3521000146865845 0.3995000123977661 -0.8464000225067139 0.5899999737739563 -0.09080000221729279 -0.802299976348877
          0.46000000834465027 -0.07349999994039536 -0.8848999738693237 0.5331000089645386 -0.10939999669790268 -0.8389999866485596
          0.41029998660087585 -0.03009999915957451 0.9114000201225281 0.3343999981880188 -0.030400000512599945 0.9419000148773193
          0.390500009059906 -0.025299999862909317 0.9203000068664551 0.08100000023841858 0.12479999661445618 0.9889000058174133
          0.08380000293254852 0.026000000536441803 0.9961000084877014 0.031599998474121094 0.094200000166893 0.9950000047683716
          0.48840001225471497 -0.17430000007152557 -0.8550000190734863 0.4406000077724457 -0.1200999990105629 -0.8895999789237976
          0.4090999960899353 -0.14020000398159027 -0.9016000032424927 0.770799994468689 -0.49000000953674316 -0.40709999203681946
          0.7886000275611877 -0.5562999844551086 -0.2621999979019165 0.7411999702453613 -0.5185999870300293 -0.4262999892234802
          0.8452000021934509 -0.4284000098705292 0.319599986076355 0.8195000290870667 -0.5271999835968018 0.22470000386238098
          0.8061000108718872 -0.4724999964237213 0.3564000129699707 0.9872000217437744 -0.10930000245571136 -0.11590000241994858
          0.9864000082015991 -0.0820000022649765 -0.14249999821186066 0.9941999912261963 -0.028999999165534973 -0.1039000004529953
          0.4684000015258789 -0.11219999939203262 -0.8762999773025513 0.44760000705718994 -0.12960000336170197 -0.8848000168800354
          0.5397999882698059 -0.09600000083446503 -0.8363000154495239 0.6780999898910522 -0.20649999380111694 -0.705299973487854
          0.6080999970436096 -0.17020000517368317 -0.7753999829292297 0.6266000270843506 -0.2076999992132187 -0.7512000203132629
          -0.7663000226020813 -0.09950000047683716 -0.6347000002861023 -0.5841000080108643 -0.3377000093460083 -0.738099992275238
          -0.4586000144481659 -0.2827000021934509 -0.8424999713897705 -0.8090000152587891 -0.20309999585151672 0.5515999794006348
          -0.4875999987125397 -0.426800012588501 0.7616999745368958 -0.7368999719619751 -0.4772999882698059 0.4787999987602234
          -0.039500001817941666 0.17159999907016754 -0.9843999743461609 -0.22669999301433563 0.03849999979138374 -0.9732000231742859
          0.12999999523162842 0.49570000171661377 -0.8586999773979187 0.43149998784065247 -0.28600001335144043 0.8555999994277954
          0.531499981880188 -0.17569999396800995 0.8285999894142151 0.47839999198913574 -0.16670000553131104 0.8622000217437744
          -0.6814000010490417 0.0835999995470047 -0.7271000146865845 -0.8770999908447266 -0.2159000039100647 -0.42899999022483826
          0.8083000183105469 -0.49219998717308044 0.3231000006198883 -0.9508000016212463 0.1412000060081482 -0.2759000062942505
          0.6589999794960022 -0.5009999871253967 0.5611000061035156 0.5752999782562256 -0.6294000148773193 0.5224000215530396
          0.5734000205993652 -0.5807999968528748 0.5777999758720398 -0.2660999894142151 0.006000000052154064 0.9639000296592712
          -0.2508000135421753 -0.023099999874830246 0.9678000211715698 -0.2433999925851822 0.031099999323487282 0.9693999886512756
          -0.4106999933719635 -0.12309999763965607 0.9034000039100647 -0.4081000089645386 -0.13930000364780426 0.9023000001907349
          -0.4422999918460846 -0.03370000049471855 0.8963000178337097 0.8438000082969666 0.04650000110268593 -0.534600019454956
          0.9455999732017517 -0.04430000111460686 -0.3222000002861023 0.8866000175476074 0.005799999926239252 -0.4625000059604645
          -0.7888000011444092 -0.3840999901294708 0.4799000024795532 -0.8842999935150146 -0.45840001106262207 -0.08900000154972076
          -0.9810000061988831 -0.17640000581741333 0.08070000261068344 -0.930899977684021 0.28940001130104065 0.22300000488758087
          -0.9000999927520752 0.3028999865055084 0.3133000135421753 -0.9448000192642212 0.2935999929904938 0.1454000025987625
          -0.9805999994277954 0.10170000046491623 0.16760000586509705 -0.9980999827384949 0.060600001364946365 0.007199999876320362
          -0.9871000051498413 0.11599999666213989 0.11020000278949738 -0.9632999897003174 0.07450000196695328 0.257999986410141
          -0.9836000204086304 -0.1256999969482422 -0.12970000505447388 -0.9919999837875366 0.03449999913573265 -0.1216999962925911
          0.9110999703407288 -0.3553999960422516 -0.2087000012397766 0.9333000183105469 -0.3580000102519989 0.02879999950528145
          0.8191999793052673 -0.3912000060081482 -0.41929998993873596 0.062300000339746475 -0.762499988079071 0.6438999772071838
          0.14970000088214874 -0.9447000026702881 0.29170000553131104 0.22859999537467957 -0.8672000169754028 0.4424999952316284
          0.3961000144481659 -0.27379998564720154 0.8763999938964844 0.38260000944137573 -0.16459999978542328 0.9090999960899353
          0.31360000371932983 -0.2754000127315521 0.9086999893188477 0.8073999881744385 -0.5015000104904175 -0.3107999861240387
          0.8392000198364258 -0.40290001034736633 -0.3650999963283539 0.7638999819755554 -0.3379000127315521 -0.5497999787330627
          -0.04439999908208847 -0.9839000105857849 -0.17339999973773956 0.07450000196695328 -0.9969000220298767 -0.026799999177455902
          0.013399999588727951 -0.994700014591217 -0.10170000046491623 -0.7825000286102295 0.5430999994277954 -0.304500013589859
          -0.7545999884605408 0.5002999901771545 -0.4246000051498413 -0.795799970626831 0.5400999784469604 -0.2736999988555908
          -0.3718999922275543 0.08709999918937683 -0.9241999983787537 -0.3073999881744385 0.02239999920129776 -0.9513000249862671
          -0.27639999985694885 0.1234000027179718 -0.9531000256538391 -0.16040000319480896 -0.9399999976158142 0.3012999892234802
          -0.37549999356269836 -0.8658000230789185 0.33070001006126404 -0.18709999322891235 -0.9042999744415283 0.3837999999523163
          -0.20239999890327454 0.055399999022483826 0.9776999950408936 -0.07980000227689743 0.028200000524520874 0.996399998664856
          -0.07670000195503235 0.07660000026226044 0.9940999746322632 0.29249998927116394 0.9100000262260437 0.2939999997615814
          0.2913999855518341 0.9064000248908997 0.3059000074863434 0.13740000128746033 0.9621000289916992 0.23569999635219574
          0.33329999446868896 0.824999988079071 0.4564000070095062 0.3874000012874603 0.7310000061988831 0.5618000030517578
          0.44510000944137573 0.7736999988555908 0.45089998841285706 -0.9854000210762024 -0.16580000519752502 -0.03869999945163727
          -0.9559999704360962 -0.18469999730587006 0.2280000001192093 -0.9986000061035156 0.04529999941587448 -0.02710000053048134
          0.722000002861023 0.21070000529289246 0.6589999794960022 0.7760000228881836 0.08619999885559082 0.6248000264167786
          0.8252000212669373 0.15860000252723694 0.5421000123023987 0.820900022983551 -0.25049999356269836 -0.5131999850273132
          0.9871000051498413 -0.14309999346733093 -0.07240000367164612 0.9427000284194946 -0.20270000398159027 -0.26489999890327454
          -0.9409000277519226 -0.3037000000476837 -0.1501999944448471 -0.8137000203132629 -0.5637000203132629 0.14219999313354492
          0.43619999289512634 -0.028200000524520874 -0.899399995803833 0.4090999960899353 -0.07289999723434448 -0.909600019454956
          0.460999995470047 -0.08510000258684158 -0.8833000063896179 0.7670000195503235 -0.32510000467300415 -0.5532000064849854
          0.8853999972343445 -0.3010999858379364 -0.35409998893737793 0.9067000150680542 -0.2718999981880188 -0.3224000036716461
          0.6861000061035156 -0.05000000074505806 -0.7257999777793884 0.6517000198364258 0.06840000301599503 -0.7554000020027161
          0.5866000056266785 0.08259999752044678 -0.8057000041007996 0.26759999990463257 0.23890000581741333 -0.9333999752998352
          -0.46369999647140503 -0.19200000166893005 0.8648999929428101 -0.13529999554157257 -0.5248000025749207 0.840399980545044
          -0.5932999849319458 -0.42289999127388 0.6848999857902527 -0.1404999941587448 -0.4997999966144562 0.8547000288963318
          -0.32260000705718994 -0.4828999936580658 0.8141000270843506 -0.22200000286102295 -0.6840999722480774 0.6948000192642212
          -0.32100000977516174 0.06530000269412994 -0.9448000192642212 -0.301800012588501 0.029600000008940697 -0.9528999924659729
          -0.25870001316070557 0.07079999893903732 -0.9632999897003174 -0.847599983215332 0.1451999992132187 -0.5105000138282776
          -0.8716999888420105 0.15839999914169312 -0.46380001306533813 -0.8889999985694885 0.1446000039577484 -0.4345000088214874
          0.7706000208854675 0.635200023651123 -0.051500000059604645 0.07909999787807465 0.9837999939918518 0.1607999950647354
          -0.06920000165700912 0.9922000169754028 -0.10329999774694443 -0.35749998688697815 0.18940000236034393 0.9144999980926514
          -0.3253999948501587 0.19779999554157257 0.9246000051498413 -0.4724999964237213 0.12809999287128448 0.8719000220298767
          0.0989999994635582 0.1256999969482422 0.9871000051498413 0.0414000004529953 0.09000000357627869 0.9951000213623047
          -0.11259999871253967 0.10180000215768814 0.9883999824523926 -0.4957999885082245 -0.574999988079071 -0.6507999897003174
          -0.39329999685287476 -0.8230999708175659 -0.40959998965263367 0.05400000140070915 -0.9075000286102295 -0.4165000021457672
          0.5317000150680542 -0.8460000157356262 -0.04019999876618385 0.39640000462532043 -0.9063000082969666 -0.14659999310970306
          0.41940000653266907 -0.8452000021934509 -0.3312999904155731 -0.026399999856948853 -0.3249000012874603 0.9453999996185303
          0.2004999965429306 -0.43380001187324524 0.8784000277519226 -0.15850000083446503 -0.19200000166893005 0.968500018119812
          0.35839998722076416 -0.32019999623298645 0.8769000172615051 0.4099999964237213 -0.36890000104904175 0.8342000246047974
          0.3571000099182129 -0.4059000015258789 0.8413000106811523 -0.40849998593330383 -0.8277999758720398 -0.3847000002861023
          0.06509999930858612 -0.9452999830245972 -0.3197000026702881 -0.27730000019073486 -0.9546999931335449 -0.10840000212192535
          0.44670000672340393 0.753600001335144 0.4823000133037567 0.48080000281333923 0.7516000270843506 0.4514999985694885
          0.40860000252723694 0.8565999865531921 0.31520000100135803 -0.2702000141143799 -0.9341999888420105 0.23309999704360962