<?xml version="1.0"?>
<VTKFile type="PolyData" version="0.1" byte_order="LittleEndian" header_type="UInt32" compressor="vtkZLibDataCompressor">
  <PolyData>
    <FieldData>
      <Array type="String" Name="MaterialNames" NumberOfTuples="1" format="ascii">
        109 97 116 101 114 105 97 108 95 48 0
      </Array>
      <Array type="String" Name="MaterialLibraries" NumberOfTuples="1" format="ascii">
        109 97 116 101 114 105 97 108 46 109 116 108 0
      </Array>
    </FieldData>
    <Piece NumberOfPoints="13984" NumberOfVerts="0" NumberOfLines="0" NumberOfStrips="0" NumberOfPolys="28182">
      <PointData Normals="Normals">
        <DataArray type="Float32" Name="Normals" NumberOfComponents="3" format="ascii" RangeMin="0.9999212103389306" RangeMax="1.0000761452742573">
          -0.07020000368356705 0.20499999821186066 -0.9761999845504761 -0.12250000238418579 0.33629998564720154 -0.9337999820709229
          0.31439998745918274 0.15919999778270721 -0.9358000159263611 -0.6430000066757202 0.32429999113082886 -0.6937999725341797
          -0.14959999918937683 -0.2969000041484833 -0.9430999755859375 0.27709999680519104 -0.249099999666214 -0.9279999732971191
          -0.7204999923706055 -0.16779999434947968 -0.6729000210762024 0.0957999974489212 0.3237999975681305 -0.9412999749183655
          0.07859999686479568 0.803600013256073 -0.5899999737739563 0.3619000017642975 0.3950999975204468 -0.8442999720573425
          -0.3684000074863434 0.5242000222206116 -0.767799973487854 -0.36090001463890076 0.6920999884605408 -0.6251000165939331
          0.1817999929189682 0.1168999969959259 -0.9764000177383423 0.48579999804496765 0.15029999613761902 -0.8611000180244446
          -0.18539999425411224 0.06360000371932983 -0.9805999994277954 -0.5830000042915344 0.5677000284194946 -0.5813000202178955
          -0.499099999666214 0.01899999938905239 -0.8664000034332275 -0.8695999979972839 0.31349998712539673 -0.3815000057220459
          0.28139999508857727 0.11230000108480453 -0.953000009059906 -0.2522999942302704 -0.03880000114440918 -0.9668999910354614
          -0.711899995803833 -0.22390000522136688 -0.6657000184059143 -0.8960000276565552 -0.19339999556541443 -0.39969998598098755
          0.32019999623298645 0.04179999977350235 -0.946399986743927 0.30649998784065247 -0.021199999377131462 -0.9516000151634216
          0.04580000042915344 0.020099999383091927 -0.9987999796867371 -0.7064999938011169 -0.27730000019073486 -0.6510999798774719
          -0.10199999809265137 -0.1492999941110611 -0.9835000038146973 -0.5788000226020813 -0.243599995970726 -0.7781999707221985
          -0.6413999795913696 -0.3190999925136566 -0.697700023651123 -0.39629998803138733 -0.07400000095367432 -0.9150999784469604
          0.28459998965263367 -0.13459999859333038 -0.9491000175476074 0.12720000743865967 -0.004800000227987766 -0.9919000267982483
          -0.5771999955177307 0.18569999933242798 -0.795199990272522 -0.4496999979019165 0.3409000039100647 -0.8256000280380249
          -0.21629999577999115 0.21070000529289246 -0.9532999992370605 0.28859999775886536 0.05400000140070915 -0.9559000134468079
          -0.6901000142097473 0.4359000027179718 -0.5777000188827515 -0.05400000140070915 0.13609999418258667 -0.9891999959945679
          -0.5855000019073486 0.4325000047683716 -0.685699999332428 -0.37229999899864197 0.24240000545978546 -0.8959000110626221
          -0.7282999753952026 0.3935999870300293 -0.5609999895095825 0.09040000289678574 0.07729999721050262 -0.992900013923645
          0.3188000023365021 0.05909999832510948 -0.9459999799728394 -0.7597000002861023 0.32510000467300415 -0.5631999969482422
          0.421999990940094 0.08789999783039093 -0.9023000001907349 0.26820001006126404 -0.02889999933540821 -0.9628999829292297
          0.2320999950170517 0.13940000534057617 -0.9625999927520752 -0.95660001039505 0.14149999618530273 -0.2547000050544739
          0.42410001158714294 0.004800000227987766 -0.9056000113487244 -0.9714999794960022 -0.11479999870061874 -0.20749999582767487
          0.47099998593330383 0.07320000231266022 -0.8791000247001648 0.1949000060558319 0.03139999881386757 -0.9803000092506409
          0.01850000023841858 -0.03689999878406525 -0.9991000294685364 -0.19470000267028809 -0.2732999920845032 -0.9419999718666077
          -0.7926999926567078 -0.3248000144958496 -0.5159000158309937 0.359499990940094 0.1103999987244606 -0.9265999794006348
          0.06459999829530716 -0.0803999975323677 -0.994700014591217 -0.0017999999690800905 -0.1071000024676323 -0.9943000078201294
          -0.3149999976158142 -0.24379999935626984 -0.9172999858856201 -0.7695000171661377 -0.2937000095844269 -0.5670999884605408
          0.5103999972343445 -0.09669999778270721 -0.8544999957084656 0.23160000145435333 -0.10239999741315842 -0.9674000144004822
          -0.07500000298023224 -0.2980000078678131 -0.9516000151634216 -0.14480000734329224 -0.4097999930381775 -0.900600016117096
          -0.48739999532699585 -0.6543999910354614 -0.5781000256538391 -0.6948999762535095 -0.554099977016449 -0.45840001106262207
          0.20980000495910645 -0.4560999870300293 -0.864799976348877 -0.32019999623298645 -0.7315999865531921 -0.6018000245094299
          -0.34299999475479126 -0.7994999885559082 -0.49300000071525574 -0.4025999903678894 -0.791100025177002 -0.46050000190734863
          -0.1420000046491623 -0.8568999767303467 -0.49549999833106995 0.15970000624656677 0.6898000240325928 -0.7062000036239624
          0.27410000562667847 0.30329999327659607 -0.9125999808311462 0.0071000000461936 0.6603000164031982 -0.7509999871253967
          -0.09769999980926514 0.5995000004768372 -0.7943999767303467 -0.22040000557899475 0.8069000244140625 -0.5479999780654907
          -0.39500001072883606 0.8360000252723694 -0.38100001215934753 0.5231999754905701 0.09030000120401382 -0.8474000096321106
          0.33709999918937683 0.06889999657869339 -0.9390000104904175 0.14659999310970306 0.13449999690055847 -0.9800000190734863
          0.24009999632835388 0.27230000495910645 -0.9318000078201294 -0.2578999996185303 0.8791999816894531 -0.40059998631477356
          -0.5519999861717224 0.7979999780654907 -0.241799995303154 0.3905999958515167 0.024000000208616257 -0.920199990272522
          0.34439998865127563 0.13269999623298645 -0.9294000267982483 -0.9150999784469604 0.3361999988555908 -0.22259999811649323
          0.35569998621940613 0.05959999933838844 -0.932699978351593 0.37610000371932983 0.13369999825954437 -0.9168999791145325
          -0.954200029373169 -0.21220000088214874 -0.21080000698566437 0.4832000136375427 -0.05820000171661377 -0.8736000061035156
          0.26579999923706055 -0.050599999725818634 -0.9627000093460083 -0.9143999814987183 -0.32850000262260437 -0.23649999499320984
          -0.926800012588501 -0.2856999933719635 -0.24369999766349792 0.588100016117096 -0.5692999958992004 -0.5745000243186951
          0.663100004196167 -0.6815000176429749 -0.3095000088214874 0.4032000005245209 -0.22750000655651093 -0.8863999843597412
          -0.8361999988555908 -0.33070001006126404 -0.4375999867916107 -0.8704000115394592 -0.37040001153945923 -0.32429999113082886
          0.7975999712944031 -0.3573000133037567 -0.4860000014305115 0.45339998602867126 -0.13259999454021454 -0.8813999891281128
          -0.9023000001907349 -0.016699999570846558 -0.4307999908924103 -0.8823999762535095 -0.2736999988555908 -0.38260000944137573
          0.49230000376701355 -0.17409999668598175 -0.8528000116348267 0.8895000219345093 -0.3237999975681305 -0.3224000036716461
          0.4189999997615814 -0.18119999766349792 -0.8896999955177307 -0.7860000133514404 0.38999998569488525 -0.4796999990940094
          0.8629000186920166 -0.3483999967575073 -0.3659999966621399 0.4973999857902527 -0.04349999874830246 -0.8664000034332275
          -0.8080999851226807 0.421099990606308 -0.41190001368522644 -0.8256999850273132 0.4544000029563904 -0.3343999981880188
          0.7598999738693237 -0.21389999985694885 -0.6137999892234802 0.9509999752044678 0.08389999717473984 -0.29760000109672546
          -0.7799999713897705 0.5275999903678894 -0.33660000562667847 -0.8822000026702881 0.3783000111579895 -0.28049999475479126
          0.4025999903678894 0.19550000131130219 -0.8942999839782715 0.8881000280380249 0.4235000014305115 -0.17890000343322754
          0.5439000129699707 0.5626999735832214 -0.6225000023841858 0.4535999894142151 0.09120000153779984 -0.8865000009536743
          -0.9488000273704529 0.20980000495910645 -0.2361000031232834 0.5187000036239624 0.6858000159263611 -0.5105000138282776
          0.423799991607666 0.5382999777793884 -0.7283999919891357 -0.9553999900817871 0.07909999787807465 -0.28450000286102295
          0.35109999775886536 0.0674000009894371 -0.933899998664856 0.5031999945640564 0.5415999889373779 -0.6733999848365784
          0.3849000036716461 0.2143000066280365 -0.8977000117301941 0.164000004529953 0.08020000159740448 -0.9832000136375427
          0.37869998812675476 0.027799999341368675 -0.9251000285148621 -0.968500018119812 -0.1444000005722046 -0.20280000567436218
          0.25049999356269836 0.1120000034570694 -0.9616000056266785 0.20999999344348907 0.09889999777078629 -0.9726999998092651
          0.46140000224113464 0.0940999984741211 -0.8822000026702881 -0.9438999891281128 -0.23600000143051147 -0.23080000281333923
          0.3603000044822693 0.1137000024318695 -0.9258999824523926 0.2004999965429306 0.0714000016450882 -0.9771000146865845
          0.2921999990940094 0.1436000019311905 -0.9455000162124634 -0.8712000250816345 -0.45320001244544983 -0.18880000710487366
          0.49410000443458557 -0.15970000624656677 -0.8546000123023987 0.3276999890804291 -0.13300000131130219 -0.9354000091552734
          0.16210000216960907 -0.07559999823570251 -0.9839000105857849 0.3544999957084656 -0.03799999877810478 -0.9343000054359436
          -0.6635000109672546 -0.7384999990463257 -0.11990000307559967 0.3287000060081482 -0.7208999991416931 -0.6100999712944031
          0.1615999937057495 -0.3594000041484833 -0.9190999865531921 0.271699994802475 -0.3637999892234802 -0.8909000158309937
          -0.4108000099658966 -0.9117000102996826 -0.003100000089034438 -0.38119998574256897 -0.9190999865531921 -0.09960000216960907
          -0.4851999878883362 -0.8683000206947327 -0.10260000079870224 0.10790000110864639 -0.8489999771118164 -0.5171999931335449
          0.053199999034404755 -0.8999000191688538 -0.4327999949455261 -0.3073999881744385 -0.9513999819755554 -0.01860000006854534
          0.36500000953674316 0.3447999954223633 -0.864799976348877 0.262800008058548 0.36649999022483826 -0.8924999833106995
          0.27320000529289246 0.8167999982833862 -0.5080999732017517 0.4138999879360199 0.6553000211715698 -0.6319000124931335
          0.3553999960422516 0.3425999879837036 -0.869700014591217 0.19979999959468842 0.7565000057220459 -0.6226999759674072
          -0.006200000178068876 0.9344000220298767 -0.3560999929904938 -0.11289999634027481 0.9330999851226807 -0.34130001068115234
          -0.31859999895095825 0.8998000025749207 -0.29809999465942383 -0.46380001306533813 0.8446999788284302 -0.2669999897480011
          0.5224000215530396 0.1266999989748001 -0.8432000279426575 0.2870999872684479 0.09910000115633011 -0.9527999758720398
          0.18400000035762787 0.10930000245571136 -0.9768000245094299 0.3725000023841858 0.11219999939203262 -0.9211999773979187
          -0.3855000138282776 0.8963000178337097 -0.21930000185966492 -0.4512999951839447 0.867900013923645 -0.20749999582767487
          -0.6409000158309937 0.727400004863739 -0.2451000064611435 0.31540000438690186 0.053199999034404755 -0.9474999904632568
          0.18400000035762787 -0.026599999517202377 -0.9825999736785889 -0.724399983882904 0.6323000192642212 -0.27469998598098755
          0.3986000120639801 0.09099999815225601 -0.9125999808311462 0.4489000141620636 0.025599999353289604 -0.8931999802589417
          0.30959999561309814 -0.052400000393390656 -0.949400007724762 -0.006899999920278788 -0.25040000677108765 -0.9681000113487244
          0.22210000455379486 -0.227400004863739 -0.9480999708175659 -0.9175999760627747 -0.3537999987602234 -0.1809999942779541
          -0.027799999341368675 -0.6715999841690063 -0.7404000163078308 0.16509999334812164 -0.5019999742507935 -0.8489999771118164
          -0.23659999668598175 -0.8203999996185303 -0.5206000208854675 0.1931000053882599 -0.9121999740600586 -0.36149999499320984
          0.3878999948501587 -0.9083999991416931 0.15629999339580536 0.6273999810218811 -0.7490000128746033 0.21299999952316284
          -0.9458000063896179 -0.2513999938964844 -0.20569999516010284 0.810699999332428 -0.5651000142097473 0.1534000039100647
          0.9021999835968018 -0.38580000400543213 0.19300000369548798 -0.8712000250816345 0.1809999942779541 -0.4562999904155731
          -0.9351000189781189 0.01759999990463257 -0.3540000021457672 0.8826000094413757 -0.38530001044273376 0.2694999873638153
          -0.8898000121116638 0.35530000925064087 -0.28630000352859497 0.8726000189781189 -0.40529999136924744 0.2727000117301941
          0.932200014591217 -0.3319000005722046 0.1446000039577484 0.9194999933242798 -0.27250000834465027 0.2831999957561493
          -0.809499979019165 0.4921000003814697 -0.32030001282691956 -0.7688000202178955 0.5134999752044678 -0.38109999895095825
          -0.8417999744415283 0.4609000086784363 -0.2809999883174896 0.9695000052452087 0.10999999940395355 0.2190999984741211
          -0.9380000233650208 0.2906999886035919 -0.18889999389648438 0.786899983882904 0.5909000039100647 0.17749999463558197
          0.61080002784729 0.7918000221252441 0.0035000001080334187 -0.9143999814987183 0.28110000491142273 -0.2913999855518341
          0.011300000362098217 0.6150000095367432 -0.7883999943733215 0.22030000388622284 0.27140000462532043 -0.9369000196456909
          -0.1858000010251999 0.6152999997138977 -0.7660999894142151 0.5091000199317932 0.8557000160217285 -0.09239999949932098
          0.486299991607666 0.8511999845504761 -0.19760000705718994 -0.9334999918937683 0.18000000715255737 -0.3100999891757965
          0.39640000462532043 -0.10949999839067459 -0.9114999771118164 0.23680000007152557 -0.013700000010430813 -0.9714999794960022
          -0.04749999940395355 0.44600000977516174 -0.8938000202178955 0.28200000524520874 0.8263999819755554 -0.48739999532699585
          -0.9226999878883362 -0.15189999341964722 -0.35429999232292175 -0.9409999847412109 -0.06239999830722809 -0.3325999975204468
          0.2721000015735626 0.09260000288486481 -0.9577999711036682 0.22709999978542328 0.125900000333786 -0.9656999707221985
          0.39329999685287476 0.10899999737739563 -0.9128999710083008 -0.8953999876976013 -0.3131999969482422 -0.3165999948978424
          -0.8737000226974487 -0.30219998955726624 -0.38119998574256897 0.3682999908924103 -0.03620000183582306 -0.9290000200271606
          0.32670000195503235 0.010900000110268593 -0.9451000094413757 0.287200003862381 0.10459999740123749 -0.9520999789237976
          -0.8632000088691711 -0.47999998927116394 -0.15629999339580536 -0.8510000109672546 -0.4489000141620636 -0.272599995136261
          0.5033000111579895 -0.22619999945163727 -0.8339999914169312 0.260699987411499 -0.3125 -0.9133999943733215
          0.35510000586509705 -0.10999999940395355 -0.9283999800682068 -0.560699999332428 -0.8264999985694885 -0.05090000107884407
          -0.699999988079071 -0.7109000086784363 -0.06830000132322311 0.41040000319480896 -0.7376999855041504 -0.5360999703407288
          0.2930000126361847 -0.8633999824523926 -0.4106999933719635 0.385699987411499 -0.9093999862670898 -0.15559999644756317
          0.4514000117778778 -0.46889999508857727 -0.7591999769210815 -0.3285999894142151 -0.944100022315979 0.02539999969303608
          -0.44749999046325684 -0.8931000232696533 -0.04580000042915344 0.4278999865055084 -0.8859999775886536 -0.1785999983549118
          0.1703999936580658 -0.9710000157356262 0.1679999977350235 0.1054999977350235 -0.9922999739646912 0.06560000032186508
          -0.12939999997615814 -0.9897000193595886 0.0608999989926815 -0.3264999985694885 -0.9379000067710876 0.11739999800920486
          0.3862999975681305 0.90829998254776 -0.16030000150203705 0.3434999883174896 0.9358999729156494 -0.07859999686479568
          0.13539999723434448 0.9448000192642212 -0.2985000014305115 -0.09350000321865082 0.960099995136261 -0.26350000500679016
          -0.04699999839067459 0.9294999837875366 -0.3659000098705292 0.041600000113248825 0.9578999876976013 -0.2840000092983246
          -0.18209999799728394 0.9401999711990356 -0.28790000081062317 0.5048999786376953 0.5194000005722046 -0.6894000172615051
          0.47749999165534973 0.8269000053405762 -0.296999990940094 0.5486000180244446 0.7311000227928162 -0.4056999981403351
          0.34209999442100525 0.9147999882698059 -0.21469999849796295 0.05770000070333481 0.947700023651123 -0.3140000104904175
          -0.1509000062942505 0.9682999849319458 -0.19930000603199005 -0.2667999863624573 0.9452999830245972 -0.1876000016927719
          -0.4650000035762787 0.8490999937057495 -0.25060001015663147 -0.48089998960494995 0.8492000102996826 -0.21799999475479126
          0.6169999837875366 0.7717000246047974 -0.1542000025510788 0.4860000014305115 0.5095999836921692 -0.7099999785423279
          0.47360000014305115 0.19709999859333038 -0.8583999872207642 -0.44020000100135803 0.8787000179290771 -0.18469999730587006
          -0.7031999826431274 0.6542999744415283 -0.2782000005245209 -0.5940999984741211 0.7710999846458435 -0.2290000021457672
          -0.7777000069618225 0.5881999731063843 -0.22169999778270721 0.24449999630451202 0.2558000087738037 -0.9352999925613403
          0.5393000245094299 0.6625000238418579 -0.5198000073432922 0.5802000164985657 0.5776000022888184 -0.5742999911308289
          0.20149999856948853 0.1469999998807907 -0.9684000015258789 0.4154999852180481 0.09740000218153 -0.9043999910354614
          -0.9641000032424927 0.18960000574588776 -0.18610000610351562 0.28630000352859497 0.26429998874664307 -0.9210000038146973
          0.5580000281333923 0.41830000281333923 -0.71670001745224 0.08699999749660492 0.07479999959468842 -0.993399977684021
          0.22849999368190765 0.08449999988079071 -0.9699000120162964 0.3758000135421753 0.1535000056028366 -0.9139000177383423
          -0.968999981880188 -0.18799999356269836 -0.16030000150203705 0.4058000147342682 0.1875 -0.8945000171661377
          0.6908000111579895 0.3978999853134155 -0.6036999821662903 0.7350999712944031 0.25040000677108765 -0.6299999952316284
          0.125900000333786 0.0560000017285347 -0.9904999732971191 -0.916100025177002 -0.35749998688697815 -0.18160000443458557
          -0.9023000001907349 -0.3828999996185303 -0.19789999723434448 0.37400001287460327 0.00559999980032444 -0.9273999929428101
          0.7508999705314636 0.0681999996304512 -0.6568999886512756 0.08630000054836273 -0.0348999984562397 -0.9957000017166138
          0.018400000408291817 -0.07029999792575836 -0.9973999857902527 0.2538999915122986 -0.11100000143051147 -0.9607999920845032
          -0.31130000948905945 -0.9417999982833862 0.1264999955892563 -0.4523000121116638 -0.885200023651123 -0.10859999805688858
          0.11389999836683273 -0.9552000164985657 0.2732999920845032 0.551800012588501 -0.7387999892234802 0.38690000772476196
          0.7781000137329102 -0.5738999843597412 0.25540000200271606 0.781000018119812 -0.5217999815940857 0.34310001134872437
          -0.9623000025749207 -0.20659999549388885 -0.17679999768733978 -0.9126999974250793 -0.35899999737739563 -0.1949000060558319
          0.3671000003814697 -0.2784000039100647 -0.887499988079071 0.6850000023841858 -0.13819999992847443 -0.7153000235557556
          0.14480000734329224 -0.2498999983072281 -0.9574000239372253 -0.0357000008225441 -0.11100000143051147 -0.9932000041007996
          -0.22789999842643738 -0.33809998631477356 -0.913100004196167 -0.52920001745224 -0.7910000085830688 -0.3070000112056732
          -0.5875999927520752 -0.5861999988555908 -0.5577999949455261 0.832099974155426 -0.41909998655319214 0.36340001225471497
          -0.9702000021934509 0.11509999632835388 -0.21299999952316284 0.3253999948501587 -0.16689999401569366 -0.9307000041007996
          -0.07159999758005142 -0.15520000457763672 -0.9853000044822693 -0.6342999935150146 -0.25780001282691956 -0.7287999987602234
          -0.755299985408783 -0.4068000018596649 -0.5138999819755554 0.8683000206947327 -0.36320000886917114 0.337799996137619
          -0.8790000081062317 0.4163999855518341 -0.23229999840259552 0.014000000432133675 0.04580000042915344 -0.9988999962806702
          0.3982999920845032 0.027400000020861626 -0.9168000221252441 -0.6345999836921692 0.08020000159740448 -0.7687000036239624
          0.8755999803543091 -0.27320000529289246 0.3984000086784363 -0.8860999941825867 0.4000999927520752 -0.23389999568462372
          0.27090001106262207 0.04039999842643738 -0.9617999792098999 -0.46050000190734863 0.1550000011920929 -0.8740000128746033
          -0.013199999928474426 0.15649999678134918 -0.9876000285148621 -0.6402999758720398 0.3382999897003174 -0.6895999908447266
          0.9182000160217285 0.21940000355243683 0.32989999651908875 -0.9150000214576721 0.33559998869895935 -0.2240000069141388
          0.2793999910354614 0.11550000309944153 -0.9531999826431274 -0.3962000012397766 0.6482999920845032 -0.6502000093460083
          -0.08799999952316284 0.5631999969482422 -0.8216000199317932 -0.4023999869823456 0.7102000117301941 -0.5776000022888184
          0.7754999995231628 0.5216000080108643 0.35569998621940613 0.38920000195503235 0.8773999810218811 0.28060001134872437
          -0.8952000141143799 0.36480000615119934 -0.25609999895095825 -0.906000018119812 0.2906999886035919 -0.3075999915599823
          0.3303000032901764 0.12189999967813492 -0.9359999895095825 0.20600000023841858 0.22579999268054962 -0.9520999789237976
          -0.42730000615119934 0.7235000133514404 -0.5421000123023987 -0.4456000030040741 0.7425000071525574 -0.5001000165939331
          -0.45669999718666077 0.8206999897956848 -0.3434000015258789 0.3587000072002411 0.9319000244140625 0.054099999368190765
          0.52920001745224 0.8353000283241272 -0.14900000393390656 -0.9764999747276306 0.03869999945163727 -0.21199999749660492
          0.5680999755859375 -0.08420000225305557 -0.8185999989509583 0.3402999937534332 -0.08510000258684158 -0.9363999962806702
          0.26030001044273376 -0.002199999988079071 -0.965499997138977 -0.11749999970197678 0.9406999945640564 -0.3183000087738037
          0.2614000141620636 0.9483000040054321 -0.18019999563694 -0.9782000184059143 -0.0966000035405159 -0.18359999358654022
          0.595300018787384 -0.38940000534057617 -0.7028999924659729 0.8342999815940857 -0.10909999907016754 -0.5404999852180481
          0.3422999978065491 -0.09290000051259995 -0.9350000023841858 0.38280001282691956 -0.07519999891519547 -0.920799970626831
          -0.8977000117301941 -0.3885999917984009 -0.2076999992132187 0.9264000058174133 -0.09210000187158585 -0.3650999963283539
          0.45320001244544983 0.008999999612569809 -0.8913999795913696 0.26669999957084656 -0.302700012922287 -0.9150000214576721
          -0.7754999995231628 -0.6244000196456909 -0.093299999833107 -0.8118000030517578 -0.5702000260353088 -0.1256999969482422
          0.6157000064849854 -0.6906999945640564 -0.3792000114917755 0.4372999966144562 -0.8345000147819519 -0.3352999985218048
          0.45010000467300415 -0.8845999836921692 -0.12240000069141388 0.503000020980835 -0.47040000557899475 -0.7250999808311462
          -0.6230999827384949 -0.7817000150680542 -0.026900000870227814 0.5509999990463257 -0.7968000173568726 -0.24819999933242798
          0.3343000113964081 -0.9262999892234802 0.1738000065088272 0.15639999508857727 -0.9779000282287598 0.13840000331401825
          0.17499999701976776 -0.9312000274658203 0.3197000026702881 0.08420000225305557 -0.9742000102996826 0.2093999981880188
          0.16359999775886536 -0.881600022315979 0.44269999861717224 0.241799995303154 -0.8978999853134155 0.3677999973297119
          -0.27869999408721924 -0.9492999911308289 0.14550000429153442 -0.23970000445842743 -0.968999981880188 0.05990000069141388
          -0.43630000948905945 -0.8998000025749207 0.004699999932199717 0.2160000056028366 -0.8928999900817871 0.3950999975204468
          -0.07519999891519547 -0.923799991607666 0.37529999017715454 -0.24529999494552612 -0.9207000136375427 0.303600013256073
          0.3619000017642975 0.9276999831199646 -0.09120000153779984 0.02850000001490116 0.9463000297546387 -0.32199999690055847
          0.16380000114440918 0.9553999900817871 -0.24560000002384186 -0.06509999930858612 0.954200029373169 -0.2921000123023987
          -0.2451999932527542 0.91839998960495 -0.31040000915527344 -0.28380000591278076 0.8827999830245972 -0.3743000030517578
          -0.3070000112056732 0.9153000116348267 -0.260699987411499 0.4797999858856201 0.8756999969482422 -0.054099999368190765
          0.5210999846458435 0.8493000268936157 -0.08500000089406967 0.35510000586509705 0.9308000206947327 -0.08630000054836273
          -0.42419999837875366 0.8883000016212463 -0.17589999735355377 -0.47749999165534973 0.8669999837875366 -0.14249999821186066
          0.6438999772071838 0.7590000033378601 -0.09610000252723694 -0.5726000070571899 0.8023999929428101 -0.1680999994277954
          -0.8277999758720398 0.5396999716758728 -0.15320000052452087 0.6650000214576721 0.7419000267982483 -0.08649999648332596
          -0.9839000105857849 0.14030000567436218 -0.11079999804496765 0.7278000116348267 0.5615000128746033 -0.3937000036239624
          0.714900016784668 0.6934000253677368 -0.08990000188350677 0.8453999757766724 0.4823000133037567 -0.2296999990940094
          -0.9764999747276306 -0.17630000412464142 -0.12389999628067017 0.911899983882904 0.3075000047683716 -0.271699994802475
          0.12460000067949295 -0.9010000228881836 0.4156000018119812 0.23109999299049377 -0.921999990940094 0.31060001254081726
          0.5817999839782715 -0.673799991607666 0.45559999346733093 -0.1120000034570694 -0.9682000279426575 0.22360000014305115
          -0.9200999736785889 -0.32499998807907104 -0.2184000015258789 0.9103999733924866 0.2639000117778778 -0.31859999895095825
          -0.5699999928474426 -0.8216999769210815 0.00139999995008111 0.7835999727249146 -0.47350001335144043 0.40220001339912415
          -0.9707000255584717 -0.1581999957561493 -0.1808999925851822 -0.8968999981880188 -0.35589998960494995 -0.26260000467300415
          0.617900013923645 0.1023000031709671 -0.7796000242233276 0.8593999743461609 0.4440000057220459 -0.2533999979496002
          0.849399983882904 0.17649999260902405 -0.49729999899864197 -0.807699978351593 -0.5475999712944031 -0.21879999339580536
          -0.7077000141143799 -0.701200008392334 -0.08649999648332596 0.8227999806404114 -0.4221000075340271 0.3806000053882599
          -0.9628000259399414 0.15440000593662262 -0.2215999960899353 0.44620001316070557 -0.03350000083446503 -0.8942999839782715
          0.8159999847412109 -0.011599999852478504 -0.578000009059906 0.31529998779296875 -0.23319999873638153 -0.9199000000953674
          0.3010999858379364 -0.3375999927520752 -0.8917999863624573 -0.9086999893188477 -0.2526000142097473 -0.33239999413490295
          0.9020000100135803 -0.31769999861717224 0.2924000024795532 0.8371000289916992 -0.4122999906539917 0.3596999943256378
          -0.8155999779701233 0.46709999442100525 -0.34150001406669617 -0.7724999785423279 0.5253999829292297 -0.35659998655319214
          -0.8206999897956848 0.454800009727478 -0.3458000123500824 0.36230000853538513 0.01549999974668026 -0.9319999814033508
          0.7282000184059143 0.018300000578165054 -0.6851999759674072 0.17569999396800995 -0.015399999916553497 -0.9843000173568726
          0.30799999833106995 -0.046799998730421066 -0.9502000212669373 -0.895799994468689 0.13330000638961792 -0.42399999499320984
          -0.7950000166893005 0.2953000068664551 -0.5297999978065491 -0.9038000106811523 0.263700008392334 -0.3370000123977661
          0.7954000234603882 -0.4456999897956848 0.4106999933719635 0.8952000141143799 -0.1370999962091446 0.42399999499320984
          0.9383000135421753 -0.20000000298023224 0.28200000524520874 -0.9093999862670898 0.3244999945163727 -0.26019999384880066
          0.38510000705718994 0.0142000000923872 -0.9228000044822693 0.7829999923706055 -0.000699999975040555 -0.6220999956130981
          0.3199999928474426 0.08160000294446945 -0.9438999891281128 -0.8514000177383423 0.4496000111103058 -0.27000001072883606
          0.9487000107765198 0.17319999635219574 0.2646999955177307 -0.8245999813079834 0.4399999976158142 -0.35569998621940613
          -0.8259000182151794 0.42730000615119934 -0.3677999973297119 -0.8478999733924866 0.400299996137619 -0.34769999980926514
          0.5026999711990356 -0.03370000049471855 -0.8637999892234802 0.8327000141143799 -0.019899999722838402 -0.5533999800682068
          0.3440999984741211 -0.005499999970197678 -0.9388999938964844 -0.5831000208854675 0.7638000249862671 -0.2766999900341034
          -0.6018999814987183 0.7067999839782715 -0.3716000020503998 -0.48899999260902405 0.7954000234603882 -0.3580999970436096
          0.8736000061035156 0.4253000020980835 0.2363000065088272 -0.9176999926567078 0.19370000064373016 -0.34689998626708984
          0.4918999969959259 -0.13429999351501465 -0.8603000044822693 0.8924999833106995 -0.28769999742507935 -0.3474999964237213
          -0.501800000667572 0.7949000000953674 -0.3411000072956085 0.39959999918937683 0.8774999976158142 -0.26510000228881836
          0.16089999675750732 0.9714999794960022 -0.17430000007152557 -0.029600000008940697 0.9666000008583069 -0.25450000166893005
          -0.1453000009059906 0.9193999767303467 0.36559998989105225 0.2298000007867813 0.7860000133514404 0.5738999843597412