<?xml version="1.0"?>
<VTKFile type="PolyData" version="0.1" byte_order="LittleEndian" header_type="UInt32" compressor="vtkZLibDataCompressor">
  <PolyData>
    <FieldData>
      <Array type="String" Name="MaterialNames" NumberOfTuples="1" format="ascii">
        109 97 116 101 114 105 97 108 95 48 0
      </Array>
      <Array type="String" Name="MaterialLibraries" NumberOfTuples="1" format="ascii">
        109 97 116 101 114 105 97 108 46 109 116 108 0
      </Array>
    </FieldData>
    <Piece NumberOfPoints="9199" NumberOfVerts="0" NumberOfLines="0" NumberOfStrips="0" NumberOfPolys="18648">
      <PointData Normals="Normals">
        <DataArray type="Float32" Name="Normals" NumberOfComponents="3" format="ascii" RangeMin="0.999879734258717" RangeMax="1.0000606826708645">
          -0.5620999932289124 -0.7233999967575073 -0.4009000062942505 -0.9520999789237976 -0.12269999831914902 -0.2799000144004822
          -0.45080000162124634 -0.8784000277519226 0.15850000083446503 -0.961899995803833 -0.26840001344680786 0.051100000739097595
          -0.18379999697208405 -0.8212000131607056 -0.5400999784469604 -0.34139999747276306 -0.4237000048160553 -0.8389999866485596
          -0.5270000100135803 -0.7055000066757202 -0.47369998693466187 -0.6723999977111816 -0.16689999401569366 -0.7211999893188477
          0.04179999977350235 -0.9930999875068665 -0.10909999907016754 -0.02329999953508377 -0.9970999956130981 -0.07240000367164612
          -0.7918999791145325 -0.23690000176429749 -0.5626999735832214 0.11969999969005585 -0.991599977016449 0.048500001430511475
          -0.09070000052452087 -0.9886999726295471 -0.11940000206232071 -0.29019999504089355 -0.9463000297546387 -0.14270000159740448
          -0.6431000232696533 -0.6396999955177307 -0.42089998722076416 -0.8812999725341797 -0.07490000128746033 -0.4666000008583069
          0.2547999918460846 -0.9661999940872192 0.03869999945163727 -0.24269999563694 -0.9164000153541565 -0.3183000087738037
          -0.6330000162124634 -0.47429999709129333 -0.6118000149726868 0.1662999987602234 -0.9714000225067139 0.16930000483989716
          -0.10279999673366547 -0.9945999979972839 0.011599999852478504 0.6312000155448914 -0.7656999826431274 0.12349999696016312
          0.4431999921798706 -0.8029000163078308 0.3986000120639801 -0.08640000224113464 -0.9764999747276306 0.19750000536441803
          -0.47429999709129333 -0.7789000272750854 0.41019999980926514 0.14069999754428864 -0.9381999969482422 0.3160000145435333
          -0.032600000500679016 -0.9929999709129333 0.1137000024318695 -0.507099986076355 -0.8416000008583069 0.1859000027179718
          -0.9818999767303467 -0.18359999358654022 0.045099999755620956 0.08250000327825546 -0.984499990940094 0.15469999611377716
          0.1468999981880188 -0.9803000092506409 0.13220000267028809 -0.23520000278949738 -0.9491000175476074 0.2092999964952469
          -0.48829999566078186 -0.8689000010490417 0.08030000329017639 -0.6298999786376953 -0.7264000177383423 0.27489998936653137
          -0.06520000100135803 -0.9276999831199646 -0.3675000071525574 -0.03739999979734421 -0.3093999922275543 -0.9502000212669373
          0.1421000063419342 -0.8816999793052673 -0.4498000144958496 -0.4772999882698059 -0.8223999738693237 -0.3095000088214874
          -0.7376000285148621 -0.48260000348091125 -0.4722999930381775 -0.07900000363588333 -0.4219000041484833 -0.9031999707221985
          -0.03889999911189079 -0.8925999999046326 -0.4490000009536743 -0.41370001435279846 -0.6621000170707703 -0.6248000264167786
          -0.38519999384880066 -0.24539999663829803 -0.8895999789237976 0.13300000131130219 -0.9889000058174133 -0.06610000133514404
          -0.3853999972343445 -0.7821000218391418 -0.4896000027656555 -0.3828999996185303 -0.21799999475479126 -0.8977000117301941
          -0.10809999704360962 -0.833899974822998 -0.5411999821662903 -0.4884999990463257 0.04969999939203262 -0.8712000250816345
          0.12540000677108765 -0.9908999800682068 0.04800000041723251 -0.25920000672340393 -0.9553999900817871 -0.14169999957084656
          -0.6814000010490417 0.060100000351667404 -0.7293999791145325 -0.7468000054359436 0.07119999825954437 -0.6611999869346619
          0.2906000018119812 -0.923799991607666 0.2492000013589859 0.03020000085234642 -0.9933000206947327 0.11150000244379044
          -0.1509000062942505 -0.9851999878883362 0.08169999718666077 -0.8479999899864197 0.04349999874830246 -0.5281999707221985
          0.17350000143051147 -0.9502999782562256 0.2583000063896179 0.49570000171661377 -0.7871999740600586 0.3668000102043152
          0.46880000829696655 -0.6643000245094299 0.582099974155426 0.5374000072479248 -0.39089998602867126 0.7472000122070312
          0.42910000681877136 -0.8493000268936157 0.3075999915599823 -0.9793999791145325 -0.00559999980032444 -0.20200000703334808
          0.7699000239372253 -0.44760000705718994 0.45489999651908875 0.8618000149726868 -0.3781999945640564 0.33820000290870667
          0.4375999867916107 -0.7982000112533569 0.4138999879360199 0.8201000094413757 -0.48829999566078186 0.29820001125335693
          0.28349998593330383 -0.9352999925613403 0.21170000731945038 0.7283999919891357 -0.6761999726295471 -0.10989999771118164
          -0.043800000101327896 -0.9919000267982483 -0.11869999766349792 0.05790000036358833 -0.9785000085830688 0.1981000006198883
          -0.9818999767303467 -0.03200000151991844 0.1867000013589859 0.7046999931335449 -0.49889999628067017 -0.5044000148773193
          0.03180000185966492 -0.9419999718666077 -0.334199994802475 -0.17229999601840973 -0.9847999811172485 0.0203000009059906
          0.5659000277519226 -0.7444000244140625 -0.35420000553131104 -0.24860000610351562 -0.9563999772071838 -0.1535000056028366
          -0.934499979019165 -0.147599995136261 0.3240000009536743 -0.438400000333786 -0.8985999822616577 0.016499999910593033
          -0.6236000061035156 -0.6948000192642212 0.35830000042915344 0.20389999449253082 -0.945900022983551 -0.2522999942302704
          0.803600013256073 -0.5575000047683716 -0.20829999446868896 -0.19280000030994415 -0.9749000072479248 -0.11150000244379044
          -0.39980000257492065 -0.9150000214576721 -0.05429999902844429 -0.7649000287055969 -0.5907999873161316 0.2563999891281128
          -0.9175999760627747 -0.17550000548362732 0.3564999997615814 0.6244000196456909 -0.7290999889373779 -0.2802000045776367
          -0.5336999893188477 -0.7998999953269958 0.2743000090122223 -0.8952999711036682 -0.27889999747276306 0.3472999930381775
          0.20990000665187836 -0.9692000150680542 0.12839999794960022 -0.7070000171661377 -0.558899998664856 0.4332999885082245
          0.5421000123023987 -0.8331999778747559 0.10930000245571136 -0.2621999979019165 -0.9122999906539917 0.31459999084472656
          0.21040000021457672 -0.9334999918937683 0.2903999984264374 -0.2786000072956085 -0.9115999937057495 0.30230000615119934
          -0.4675000011920929 -0.8066999912261963 0.36149999499320984 0.5342000126838684 -0.690500020980835 -0.4875999987125397
          0.03799999877810478 -0.16339999437332153 -0.98580002784729 -0.1363999992609024 0.08299999684095383 -0.9872000217437744
          -0.3158000111579895 0.07400000095367432 -0.945900022983551 -0.3824999928474426 -0.11379999667406082 -0.9168999791145325
          0.34929999709129333 -0.9269000291824341 0.1370999962091446 0.18719999492168427 -0.9793999791145325 0.07490000128746033
          0.08630000054836273 -0.9962000250816345 0.0027000000700354576 -0.17990000545978546 -0.9810000061988831 0.07169999927282333
          -0.39649999141693115 -0.8901000022888184 -0.22450000047683716 -0.29980000853538513 0.04569999873638153 -0.9528999924659729
          -0.21539999544620514 -0.9742000102996826 0.0674000009894371 -0.29350000619888306 -0.9513999819755554 -0.09319999814033508
          0.11580000072717667 -0.973800003528595 0.19529999792575836 -0.010499999858438969 -0.9907000064849854 0.13529999554157257
          0.043800000101327896 -0.9901999831199646 0.13279999792575836 0.25540000200271606 -0.8073999881744385 0.5317999720573425
          -0.019300000742077827 -0.878000020980835 0.478300005197525 0.2558000087738037 -0.6389999985694885 0.7253999710083008
          0.1509999930858612 -0.9053000211715698 0.3970000147819519 -0.9174000024795532 0.029899999499320984 -0.3968999981880188
          0.34940001368522644 -0.4336000084877014 0.8306000232696533 0.5033000111579895 -0.250900000333786 0.8267999887466431
          0.7609000205993652 -0.09430000185966492 0.6420000195503235 0.9761999845504761 -0.0966000035405159 0.19419999420642853
          -0.9990000128746033 -0.015599999576807022 0.04259999841451645 0.9799000024795532 -0.08540000021457672 -0.18019999563694
          0.9480000138282776 -0.1062999963760376 -0.29989999532699585 -0.9330999851226807 -0.04320000112056732 0.35690000653266907
          0.90420001745224 -0.21130000054836273 -0.3711000084877014 0.8248000144958496 -0.532800018787384 -0.1890999972820282
          -0.777899980545044 -0.4189000129699707 0.4683000147342682 0.5838000178337097 -0.8011999726295471 0.13130000233650208
          0.3197000026702881 -0.9429000020027161 0.09359999746084213 -0.589900016784668 -0.6620000004768372 0.46230000257492065
          0.22300000488758087 -0.963699996471405 0.14640000462532043 -0.1670999974012375 -0.978600025177002 0.12030000239610672
          -0.8729000091552734 -0.25929999351501465 0.4133000075817108 0.08730000257492065 -0.9961000084877014 0.007499999832361937
          -0.8273000121116638 -0.420199990272522 0.3727000057697296 -0.23270000517368317 -0.9607999920845032 0.1509999930858612
          -0.657800018787384 -0.7257999777793884 0.2011999934911728 -0.7488999962806702 -0.4569999873638153 0.4797999858856201
          -0.4372999966144562 -0.7597000002861023 0.4812999963760376 0.2214999943971634 0.03920000046491623 -0.9743000268936157
          0.424699991941452 -0.38179999589920044 -0.820900022983551 0.5960000157356262 -0.6039999723434448 -0.5291000008583069
          0.0551999993622303 -0.9059000015258789 -0.41990000009536743 0.18629999458789825 -0.32919999957084656 -0.9257000088691711
          -0.376800000667572 0.08889999985694885 -0.921999990940094 0.5708000063896179 -0.8101000189781189 -0.13330000638961792
          0.04729999974370003 -0.9796000123023987 -0.19529999792575836 -0.1842000037431717 -0.9624999761581421 -0.19900000095367432
          -0.5856000185012817 0.0681999996304512 -0.807699978351593 0.028200000524520874 -0.9973000288009644 0.0674000009894371
          -0.7531999945640564 0.037700001150369644 -0.6567000150680542 0.12860000133514404 -0.9757999777793884 0.17679999768733978
          -0.1889999955892563 -0.9564999938011169 0.22210000455379486 -0.3009999990463257 -0.9222000241279602 0.24250000715255737
          -0.14830000698566437 -0.7692000269889832 0.6215000152587891 -0.04450000077486038 -0.9405999779701233 0.33640000224113464
          -0.36809998750686646 -0.586899995803833 0.7210999727249146 -0.024800000712275505 -0.36489999294281006 0.9307000041007996
          0.21649999916553497 -0.09350000321865082 0.9718000292778015 -0.4634999930858612 -0.46810001134872437 0.7523000240325928
          0.4106999933719635 -0.001500000013038516 0.9117000102996826 -0.10620000213384628 -0.5813000202178955 0.8066999912261963
          0.5105999708175659 -0.06379999965429306 0.8574000000953674 -0.9937000274658203 -0.014299999922513962 -0.11060000211000443
          0.9088000059127808 -0.04490000009536743 0.4147000014781952 0.9983999729156494 -0.005100000184029341 0.05649999901652336
          -0.9857000112533569 -0.011099999770522118 0.16830000281333923 0.9776999950408936 0.07429999858140945 -0.19629999995231628
          0.9261999726295471 0.049400001764297485 -0.37369999289512634 0.8758999705314636 0.062300000339746475 -0.47839999198913574
          0.7511000037193298 0.11219999939203262 -0.650600016117096 0.45660001039505005 -0.00139999995008111 -0.8895999789237976
          0.3725000023841858 -0.7997000217437744 -0.4708000123500824 0.67330002784729 -0.18299999833106995 -0.7163000106811523
          0.460099995136261 -0.7074000239372253 -0.5364999771118164 0.1527000069618225 -0.9765999913215637 -0.15109999477863312
          0.1185000017285347 -0.9503999948501587 -0.2874000072479248 -0.16429999470710754 -0.9517999887466431 -0.2587999999523163
          -0.8302000164985657 -0.08940000087022781 0.5501999855041504 0.5126000046730042 -0.7922999858856201 -0.33070001006126404
          -0.25690001249313354 -0.9607999920845032 -0.10459999740123749 -0.13979999721050262 -0.9890999794006348 0.04650000110268593
          0.25049999356269836 -0.944599986076355 -0.211899995803833 -0.0406000018119812 -0.9973999857902527 -0.058800000697374344
          -0.44769999384880066 -0.8935999870300293 0.032099999487400055 -0.5307999849319458 -0.8475000262260437 -0.005900000222027302
          -0.5590000152587891 -0.7811999917030334 0.2777000069618225 -0.7616000175476074 -0.3431999981403351 0.5497000217437744
          -0.696399986743927 -0.684499979019165 0.21559999883174896 -0.8500999808311462 -0.2727000117301941 0.4503999948501587
          0.053700000047683716 -0.9922000169754028 -0.11219999939203262 -0.7807000279426575 -0.4941999912261963 0.3824000060558319
          -0.03849999979138374 -0.9761999845504761 0.21320000290870667 0.012199999764561653 -0.98580002784729 0.1673000007867813
          -0.49869999289512634 -0.7846999764442444 0.36809998750686646 -0.660099983215332 -0.44449999928474426 0.6054999828338623
          -0.2167000025510788 -0.8550000190734863 0.47119998931884766 0.09130000323057175 0.09319999814033508 -0.9914000034332275
          -0.07769999653100967 0.1136000007390976 -0.9904999732971191 -0.23010000586509705 0.11050000041723251 -0.9668999910354614
          0.6075000166893005 -0.24220000207424164 -0.7565000057220459 0.4198000133037567 0.02810000069439411 -0.9071000218391418
          0.34119999408721924 -0.4169999957084656 -0.8424000144004822 0.21719999611377716 -0.8547999858856201 -0.4713999927043915
          0.040300000458955765 -0.8256000280380249 -0.5626999735832214 0.4846000075340271 -0.4174000024795532 -0.7687000036239624
          0.4684999883174896 -0.8118000030517578 -0.34860000014305115 0.0010999999940395355 -0.9767000079154968 -0.21469999849796295
          -0.24230000376701355 -0.9520999789237976 -0.18629999458789825 -0.020600000396370888 -0.9986000061035156 -0.04919999837875366
          0.4634999930858612 -0.8708999752998352 -0.163100004196167 -0.7627000212669373 0.00839999970048666 -0.6466000080108643
          -0.09130000323057175 -0.9958000183105469 -0.009600000455975533 0.17409999668598175 -0.9635000228881836 -0.20340000092983246
          -0.3855000138282776 -0.920799970626831 0.05860000103712082 -0.28369998931884766 -0.9000999927520752 0.33079999685287476
          -0.2093999981880188 -0.040300000458955765 0.9769999980926514 -0.2224999964237213 -0.05510000139474869 0.9733999967575073
          0.13179999589920044 0.1251000016927719 0.983299970626831 -0.29179999232292175 -0.006500000134110451 0.9564999938011169
          -0.14980000257492065 -0.20149999856948853 0.9678999781608582 0.4771000146865845 -0.029500000178813934 0.8783000111579895
          -0.9502999782562256 0.0008999999845400453 -0.31139999628067017 -0.30720001459121704 -0.3871000111103058 0.8693000078201294
          -0.22370000183582306 -0.9714000225067139 0.07890000194311142 -0.6877999901771545 -0.5577999949455261 0.4645000100135803
          -0.7408999800682068 -0.13169999420642853 0.6585000157356262 -0.6432999968528748 -0.2671000063419342 0.7174999713897705
          0.753600001335144 -0.08340000361204147 0.6518999934196472 -0.2962000072002411 -0.8406999707221985 0.45329999923706055
          0.9749000072479248 0.04639999940991402 0.21789999306201935 0.9864000082015991 0.055799998342990875 0.1542000025510788
          0.9477999806404114 0.08110000193119049 -0.30820000171661377 -0.9283000230789185 -0.05220000073313713 0.36820000410079956
          0.859000027179718 0.11050000041723251 -0.4999000132083893 -0.910099983215332 -0.06360000371932983 0.40950000286102295
          -0.8762000203132629 -0.04569999873638153 0.4796000123023987 0.6995000243186951 0.11100000143051147 -0.7059000134468079
          0.7106999754905701 -0.210099995136261 -0.6712999939918518 0.367000013589859 -0.7731000185012817 -0.517300009727478
          0.6025000214576721 -0.24330000579357147 -0.7601000070571899 0.41130000352859497 -0.613099992275238 -0.6744999885559082
          -0.03359999880194664 -0.82669997215271 -0.5616999864578247 0.2985999882221222 -0.3102000057697296 -0.9024999737739563
          -0.03099999949336052 -0.9505000114440918 -0.3091000020503998 0.0632999986410141 -0.7045000195503235 -0.7069000005722046
          -0.8187999725341797 -0.06849999725818634 0.5699999928474426 -0.007000000216066837 -0.9588000178337097 -0.2840000092983246
          0.06499999761581421 -0.9567999839782715 -0.2831999957561493 0.040800001472234726 -0.9914000034332275 0.12430000305175781
          0.036400001496076584 -0.9909999966621399 0.12890000641345978 -0.14259999990463257 -0.9501000046730042 0.27720001339912415
          -0.7620999813079834 -0.14020000398159027 0.632099986076355 -0.08389999717473984 -0.9430000185966492 0.3221000134944916
          -0.0966000035405159 -0.902400016784668 0.4198000133037567 -0.2126999944448471 -0.8374999761581421 0.5034000277519226
          -0.5408999919891357 -0.5861999988555908 0.6031000018119812 -0.2045000046491623 -0.7192999720573425 0.6639000177383423
          -0.41290000081062317 -0.4440000057220459 0.795199990272522 0.6031000018119812 -0.005799999926239252 -0.7975999712944031
          -0.6148999929428101 0.02160000056028366 -0.7882999777793884 0.6550999879837036 -0.2971000075340271 -0.6947000026702881
          0.2433999925851822 -0.8371999859809875 -0.48980000615119934 0.03830000013113022 0.1762000024318695 0.9836000204086304
          0.3971000015735626 -0.017999999225139618 0.9175999760627747 -0.8708000183105469 0.003100000089034438 -0.4916999936103821
          0.6527000069618225 -0.3529999852180481 -0.670199990272522 -0.3653999865055084 0.20200000703334808 0.9086999893188477
          0.45660001039505005 -0.7480000257492065 -0.48170000314712524 -0.10599999874830246 -0.9440000057220459 -0.3122999966144562
          -0.04170000180602074 -0.9793999791145325 -0.1973000019788742 -0.14880000054836273 0.024399999529123306 0.9886000156402588
          0.43970000743865967 -0.012500000186264515 0.8980000019073486 0.6503000259399414 -0.05000000074505806 0.7580000162124634
          0.16990000009536743 -0.960099995136261 -0.22190000116825104 0.5342000126838684 -0.8233000040054321 -0.1915999948978424
          -0.17759999632835388 -0.9837999939918518 -0.024299999698996544 0.7858999967575073 0.011300000362098217 0.6182000041007996
          0.21899999678134918 -0.961899995803833 0.16359999775886536 -0.19449999928474426 -0.951200008392334 0.23960000276565552
          -0.12970000505447388 -0.9761999845504761 0.17389999330043793 -0.8355000019073486 -0.07519999891519547 0.5443000197410583
          0.9370999932289124 0.09510000050067902 0.3359000086784363 -0.05999999865889549 -0.9736999869346619 0.21969999372959137
          -0.033799998462200165 -0.9205999970436096 0.3889999985694885 -0.3140999972820282 -0.8371999859809875 0.44760000705718994
          -0.6431999802589417 -0.570900022983551 0.510200023651123 -0.8140000104904175 -0.18790000677108765 0.5494999885559082
          -0.9835000038146973 -0.03280000016093254 0.17790000140666962 0.9965999722480774 0.06069999933242798 -0.05480000004172325
          -0.9520999789237976 -0.04320000112056732 0.30250000953674316 0.840399980545044 0.07919999957084656 -0.5360000133514404
          0.8578000068664551 0.07670000195503235 -0.5081999897956848 0.7163000106811523 0.1006999984383583 -0.690500020980835
          0.6746000051498413 0.12559999525547028 -0.727400004863739 -0.21649999916553497 -0.828499972820282 -0.5164999961853027
          -0.37459999322891235 -0.32989999651908875 -0.8665000200271606 0.5426999926567078 0.03290000185370445 -0.8392999768257141
          -0.46970000863075256 -0.11180000007152557 -0.8756999969482422 -0.25119999051094055 -0.3165000081062317 -0.9146999716758728
          -0.06210000067949295 -0.5956000089645386 -0.8008999824523926 0.1363999992609024 -0.09019999951124191 -0.9865000247955322
          -0.7979999780654907 -0.02290000021457672 0.6021999716758728 -0.07569999992847443 -0.9672999978065491 -0.24210000038146973
          -0.3303999900817871 -0.8417999744415283 -0.426800012588501 0.04039999842643738 -0.8633999824523926 -0.5029000043869019
          0.1014999970793724 -0.9887999892234802 -0.10949999839067459 -0.04230000078678131 -0.9800000190734863 -0.19419999420642853
          0.10360000282526016 -0.9940999746322632 -0.032499998807907104 -0.23260000348091125 -0.972100019454956 -0.030899999663233757
          0.23420000076293945 -0.902999997138977 0.36010000109672546 -0.015599999576807022 -0.9459999799728394 0.32359999418258667
          0.2054000049829483 -0.8194000124931335 0.535099983215332 0.07880000025033951 -0.9539999961853027 0.28929999470710754
          -0.19939999282360077 -0.8628000020980835 0.4645000100135803 -0.5745000243186951 -0.0142000000923872 0.8183000087738037
          0.20960000157356262 -0.8784000277519226 0.429500013589859 -0.44679999351501465 -0.19329999387264252 0.8734999895095825
          -0.3921000063419342 -0.29280000925064087 0.8720999956130981 0.18129999935626984 -0.5823000073432922 0.7924000024795532
          -0.15940000116825104 -0.476500004529953 0.8646000027656555 -0.28060001134872437 0.0812000036239624 -0.9563999772071838
          -0.3528999984264374 0.02019999921321869 -0.9354000091552734 0.6748999953269958 0.03189999982714653 -0.7372000217437744
          -0.4708999991416931 0.1395999938249588 0.8711000084877014 0.4120999872684479 -0.06620000302791595 0.9086999893188477
          -0.2500999867916107 -0.14910000562667847 0.95660001039505 0.0674000009894371 -0.149399995803833 0.9864000082015991
          -0.28940001130104065 0.06040000170469284 0.955299973487854 0.474700003862381 0.02459999918937683 0.879800021648407
          -0.8967999815940857 -0.014499999582767487 -0.44209998846054077 -0.4530999958515167 -0.05909999832510948 0.8895000219345093
          0.7071999907493591 -0.0071000000461936 0.7069000005722046 0.7989000082015991 -0.28029999136924744 -0.5321000218391418
          -0.5748999714851379 -0.07519999891519547 0.8147000074386597 -0.4359999895095825 -0.07159999758005142 0.8970999717712402
          -0.9835000038146973 -0.05570000037550926 -0.17190000414848328 0.7646999955177307 -0.3865000009536743 -0.515500009059906
          -0.784600019454956 -0.12389999628067017 0.6075000166893005 -0.9991000294685364 -0.04039999842643738 -0.010400000028312206
          0.7243000268936157 -0.6445000171661377 -0.24490000307559967 0.2992999851703644 -0.9538999795913696 0.02019999921321869
          0.9872000217437744 0.11410000175237656 0.11140000075101852 -0.9918000102043152 -0.054999999701976776 0.1152999997138977
          0.6255999803543091 -0.763700008392334 -0.15929999947547913 0.022600000724196434 -0.9994999766349792 0.019300000742077827
          -0.30160000920295715 -0.9351999759674072 0.18549999594688416 0.3336000144481659 -0.9419000148773193 -0.039900001138448715
          -0.5227000117301941 -0.8511999845504761 -0.04769999906420708 -0.5009999871253967 -0.7727000117301941 0.3898000121116638
          -0.8016999959945679 -0.33340001106262207 0.49619999527931213 0.9944999814033508 0.03150000050663948 -0.09939999878406525
          -0.8238000273704529 -0.5555999875068665 0.11259999871253967 -0.8722000122070312 -0.3003000020980835 0.38609999418258667
          -0.04960000142455101 -0.986299991607666 -0.1573999971151352 0.9674999713897705 0.002199999988079071 -0.25290000438690186
          -0.7421000003814697 -0.6610000133514404 -0.11140000075101852 -0.9319999814033508 -0.3440999984741211 -0.1137000024318695
          0.8986999988555908 0.04859999939799309 -0.4357999861240387 0.11079999804496765 -0.9778000116348267 0.1776999980211258
          0.3246999979019165 -0.9259999990463257 0.19280000030994415 -0.5097000002861023 -0.8579000234603882 -0.06480000168085098
          -0.9034000039100647 -0.42649999260902405 -0.04309999942779541 -0.9908000230789185 -0.1348000019788742 -0.010999999940395355
          -0.3580000102519989 -0.8942999839782715 0.2685000002384186 -0.7519000172615051 -0.6377000212669373 0.16680000722408295
          -0.9361000061035156 -0.1851000040769577 -0.29919999837875366 0.8158000111579895 0.03909999877214432 -0.5770000219345093
          -0.1981000006198883 -0.9038000106811523 0.37929999828338623 -0.5666999816894531 -0.8205999732017517 0.07429999858140945
          -0.4772000014781952 -0.8611000180244446 -0.17520000040531158 -0.6128000020980835 -0.5533999800682068 -0.5641000270843506
          -0.7297999858856201 -0.34709998965263367 -0.5889000296592712 0.7164999842643738 0.07180000096559525 -0.6938999891281128
          -0.8650000095367432 -0.06210000067949295 0.49790000915527344 -0.5123000144958496 -0.4239000082015991 -0.7468000054359436
          -0.28029999136924744 -0.8073999881744385 -0.51910001039505 -0.6689000129699707 -0.08389999717473984 -0.7386000156402588
          -0.12150000035762787 -0.942799985408783 -0.3102000057697296 -0.27799999713897705 -0.7494999766349792 -0.6007999777793884
          -0.6256999969482422 -0.01679999940097332 -0.7797999978065491 -0.7975000143051147 -0.05180000141263008 0.6010000109672546
          0.01489999983459711 -0.9909999966621399 -0.13269999623298645 0.1923000067472458 -0.9811999797821045 -0.016100000590085983
          0.4327999949455261 0.13429999351501465 -0.8913999795913696 -0.29339998960494995 -0.9369000196456909 -0.19009999930858612
          -0.04230000078678131 -0.944599986076355 -0.3255000114440918 -0.25839999318122864 0.29319998621940613 -0.9204000234603882
          0.03889999911189079 0.2587999999523163 -0.9650999903678894 0.1607999950647354 0.16259999573230743 -0.9735000133514404
          0.29440000653266907 -0.9455999732017517 0.13850000500679016 0.597000002861023 -0.6639999747276306 0.45010000467300415
          -0.07100000232458115 -0.9940000176429749 0.08269999921321869 0.18850000202655792 -0.8942000269889832 0.4059999883174896
          -0.7894999980926514 0.013899999670684338 0.6136000156402588 0.5202000141143799 -0.5418999791145325 0.660099983215332
          0.3391000032424927 -0.9120000004768372 0.23090000450611115 0.5455999970436096 -0.5461999773979187 0.6355999708175659
          -0.753000020980835 0.003700000001117587 0.6579999923706055 0.45089998841285706 -0.5806000232696533 0.6779000163078308
          0.257999986410141 -0.8371000289916992 0.4823000133037567 0.546500027179718 -0.4677000045776367 0.6947000026702881
          0.40860000252723694 -0.7644000053405762 0.49880000948905945 0.4885999858379364 -0.40950000286102295 0.7703999876976013
          0.2281000018119812 -0.20020000636577606 0.9527999758720398 -0.20340000092983246 -0.0812000036239624 0.9757000207901001
          0.005100000184029341 0.1054999977350235 -0.9944000244140625 0.4350999891757965 0.06780000030994415 -0.8978000283241272
          0.53329998254776 0.056299999356269836 -0.843999981880188 -0.4250999987125397 0.03269999846816063 -0.9045000076293945
          0.5889000296592712 0.061000000685453415 -0.805899977684021 -0.8270999789237976 -0.021800000220537186 -0.5616999864578247
          -0.2126999944448471 -0.01850000023841858 0.9768999814987183 0.22429999709129333 -0.06480000168085098 0.9724000096321106
          0.7615000009536743 0.03290000185370445 -0.6473000049591064 -0.4002000093460083 -0.1890999972820282 0.8967000246047974
          -0.25290000438690186 -0.16949999332427979 0.9524999856948853 0.6754999756813049 0.11400000005960464 0.7285000085830688
          0.8209999799728394 0.01080000028014183 -0.5708000063896179 -0.699400007724762 0.045899998396635056 0.7131999731063843
          -0.8489999771118164 -0.02759999968111515 0.5275999903678894 0.7095000147819519 0.08250000327825546 0.6998000144958496
          0.8970999717712402 0.028200000524520874 0.4408999979496002 0.8827000260353088 -0.10119999945163727 -0.45879998803138733
          0.9866999983787537 0.03530000150203705 0.15880000591278076 0.7928000092506409 -0.45019999146461487 -0.4106999933719635
          -0.8406000137329102 -0.09769999980926514 0.5327000021934509 0.849399983882904 -0.3634999990463257 -0.38260000944137573
          0.3343999981880188 -0.9104999899864197 -0.24300000071525574 0.7522000074386597 -0.6043000221252441 -0.2628999948501587
          -0.814300000667572 -0.13330000638961792 0.5648000240325928 -0.8949000239372253 -0.13729999959468842 0.4246000051498413
          0.2736000120639801 -0.9527999758720398 -0.13179999589920044 -0.9894999861717224 -0.07429999858140945 0.12370000034570694
          -0.9426000118255615 -0.07020000368356705 0.3264000117778778 0.8352000117301941 -0.5498999953269958 -0.009800000116229057
          -0.9925000071525574 0.10350000113248825 -0.06449999660253525 0.4790000021457672 -0.7878000140190125 0.3871999979019165
          0.8105999827384949 -0.4503999948501587 0.374099999666214 -0.8766999840736389 -0.07360000163316727 0.47540000081062317
          0.4968999922275543 -0.7013999819755554 0.5109000205993652 0.3239000141620636 -0.8848000168800354 0.33500000834465027
          0.6503999829292297 -0.6671000123023987 0.36320000886917114 -0.8289999961853027 -0.013399999588727951 -0.5590999722480774
          0.72079998254776 0.09130000323057175 -0.6870999932289124 -0.16660000383853912 -0.9843999743461609 0.05620000138878822
          -0.22660000622272491 -0.9668999910354614 -0.11729999631643295 -0.7389000058174133 0.09059999883174896 -0.6676999926567078
          0.6689000129699707 -0.6775000095367432 0.3057999908924103 0.28279998898506165 -0.9355000257492065 0.21150000393390656