<?xml version="1.0"?>
<VTKFile type="PolyData" version="0.1" byte_order="LittleEndian" header_type="UInt32" compressor="vtkZLibDataCompressor">
  <PolyData>
    <FieldData>
      <Array type="String" Name="MaterialNames" NumberOfTuples="1" format="ascii">
        109 97 116 101 114 105 97 108 95 48 0
      </Array>
      <Array type="String" Name="MaterialLibraries" NumberOfTuples="1" format="ascii">
        109 97 116 101 114 105 97 108 46 109 116 108 0
      </Array>
    </FieldData>
    <Piece NumberOfPoints="17135" NumberOfVerts="0" NumberOfLines="0" NumberOfStrips="0" NumberOfPolys="34340">
      <PointData Normals="Normals">
        <DataArray type="Float32" Name="Normals" NumberOfComponents="3" format="ascii" RangeMin="0.99992526114546" RangeMax="1.0000754018574067">
          -0.009200000204145908 -0.09610000252723694 -0.9952999949455261 0.04839999973773956 -0.07370000332593918 -0.9961000084877014
          0.017500000074505806 -0.1257999986410141 -0.9919000267982483 -0.9686999917030334 0.08100000023841858 -0.2345999926328659
          -0.9646000266075134 0.057100001722574234 -0.2574999928474426 -0.9635999798774719 0.0746999979019165 -0.25679999589920044
          0.09849999845027924 0.05730000138282776 0.9934999942779541 -0.008899999782443047 0.06350000202655792 0.9979000091552734
          0.01720000058412552 0.031599998474121094 0.9994000196456909 -0.9164000153541565 -0.042399998754262924 0.39809998869895935
          -0.9955999851226807 0.035100001841783524 0.08720000088214874 -0.9692999720573425 0.06440000236034393 0.23729999363422394
          0.23680000007152557 0.6535000205039978 -0.718999981880188 0.2870999872684479 0.6189000010490417 -0.7311000227928162
          0.6617000102996826 0.320499986410141 -0.6777999997138977 0.9883000254631042 -0.025599999353289604 0.15029999613761902
          0.9959999918937683 -0.06880000233650208 0.05689999833703041 0.9733999967575073 -0.010999999940395355 0.2290000021457672
          -0.16599999368190765 -0.009200000204145908 0.9861000180244446 -0.32350000739097595 -0.011699999682605267 0.9460999965667725
          -0.13099999725818634 0.029200000688433647 0.9908999800682068 0.4462999999523163 -0.057100001722574234 -0.8930000066757202
          0.5080999732017517 -0.0658000037074089 -0.8587999939918518 0.5870000123977661 -0.04859999939799309 -0.8080999851226807
          -0.5809999704360962 0.1006999984383583 0.8076000213623047 -0.6823999881744385 0.07010000199079514 0.7275999784469604
          -0.4578000009059906 0.041999999433755875 0.8881000280380249 0.9132999777793884 0.05779999867081642 -0.40310001373291016
          0.9575999975204468 0.00039999998989515007 -0.2879999876022339 0.9708999991416931 0.01759999990463257 -0.23899999260902405
          -0.9052000045776367 0.3596000075340271 0.2264000028371811 -0.9085999727249146 0.3215000033378601 0.26660001277923584
          -0.8925999999046326 0.3538999855518341 0.27950000762939453 -0.3257000148296356 -0.24709999561309814 -0.9125999808311462
          -0.26190000772476196 -0.2045000046491623 -0.9431999921798706 -0.32109999656677246 -0.21629999577999115 -0.921999990940094
          0.6197999715805054 -0.14579999446868896 -0.7710999846458435 0.6710000038146973 -0.1624000072479248 -0.7235000133514404
          0.7681000232696533 -0.18729999661445618 -0.6123999953269958 -0.26330000162124634 0.77920001745224 0.5687999725341797
          -0.3463999927043915 0.8801000118255615 0.3246999979019165 -0.35280001163482666 0.7400000095367432 0.572700023651123
          0.34880000352859497 -0.5712000131607056 -0.7429999709129333 -0.04910000041127205 -0.5407999753952026 -0.8396999835968018
          0.11840000003576279 -0.5946999788284302 -0.795199990272522 -0.18709999322891235 -0.12800000607967377 0.9739999771118164
          -0.40400001406669617 -0.060600001364946365 0.9126999974250793 -0.06390000134706497 -0.08720000088214874 0.9940999746322632
          -0.6402000188827515 0.05999999865889549 0.7657999992370605 -0.6380000114440918 0.09560000151395798 0.7641000151634216
          -0.6844000220298767 0.1679999977350235 0.7093999981880188 0.5899999737739563 0.4830999970436096 -0.6468999981880188
          0.49059998989105225 0.4122999906539917 -0.7677000164985657 0.6060000061988831 0.2669999897480011 -0.7493000030517578
          0.11079999804496765 0.08079999685287476 -0.9904999732971191 -0.09730000048875809 0.125 -0.9873999953269958
          -0.1340000033378601 0.03229999914765358 -0.9904000163078308 0.9829000234603882 -0.026599999517202377 0.18230000138282776
          0.978600025177002 -0.06639999896287918 0.19470000267028809 0.9797000288963318 -0.04410000145435333 0.195700004696846
          -0.8707000017166138 0.25369998812675476 -0.4214000105857849 -0.9477999806404114 0.2551000118255615 -0.19130000472068787
          -0.95169997215271 0.28610000014305115 -0.11150000244379044 -0.41339999437332153 -0.8554999828338623 -0.31189998984336853
          -0.24210000038146973 -0.8876000046730042 -0.3919000029563904 -0.3709999918937683 -0.7297000288963318 -0.5742999911308289
          0.17149999737739563 -0.23330000042915344 0.9571999907493591 0.27149999141693115 -0.20440000295639038 0.940500020980835
          0.2290000021457672 -0.2013999968767166 0.9524000287055969 -0.8582000136375427 -0.49059998989105225 0.1509999930858612
          -0.8019000291824341 -0.5575000047683716 0.2150000035762787 -0.853600025177002 -0.508899986743927 0.11159999668598175
          -0.8371999859809875 -0.11029999703168869 0.5357000231742859 -0.8962000012397766 -0.032600000500679016 0.4424000084400177
          -0.8174999952316284 -0.17100000381469727 0.5498999953269958 -0.032600000500679016 -0.038600001484155655 -0.9987000226974487
          -0.002199999988079071 -0.007300000172108412 -1 -0.06480000168085098 -0.04490000009536743 -0.9969000220298767
          0.1379999965429306 0.9463000297546387 -0.2921999990940094 0.24230000376701355 0.9581000208854675 -0.1527000069618225
          0.5259000062942505 0.8241000175476074 -0.2102999985218048 -0.8237000107765198 -0.3544999957084656 -0.44269999861717224
          -0.33559998869895935 -0.6506999731063843 -0.6811000108718872 -0.4593000113964081 -0.5296000242233276 -0.713100016117096
          -0.33889999985694885 -0.8449000120162964 0.414000004529953 -0.30709999799728394 -0.9212999939918518 0.2387000024318695
          -0.3192000091075897 -0.8319000005722046 0.453900009393692 0.6146000027656555 0.41130000352859497 0.6730999946594238
          0.6190999746322632 0.4090999960899353 0.6703000068664551 0.5113000273704529 0.4528999924659729 0.730400025844574
          0.9758999943733215 0.05460000038146973 -0.21130000054836273 0.9225999712944031 0.0835999995470047 -0.3765000104904175
          0.9470999836921692 0.10159999877214432 -0.304500013589859 0.38830000162124634 -0.042899999767541885 -0.9204999804496765
          0.3068999946117401 -0.027899999171495438 -0.9513000249862671 0.24549999833106995 -0.0284000001847744 -0.968999981880188
          0.04600000008940697 -0.9932000041007996 -0.10670000314712524 0.23810000717639923 -0.9629999995231628 -0.12600000202655792
          0.08990000188350677 -0.9861000180244446 -0.13940000534057617 -0.8245999813079834 0.03020000085234642 -0.5648999810218811
          -0.8787999749183655 0.051500000059604645 -0.47440001368522644 -0.8385000228881836 -0.00419999985024333 -0.5447999835014343
          0.9898999929428101 -0.14139999449253082 -0.006399999838322401 0.9840999841690063 -0.13189999759197235 0.11869999766349792
          0.9900000095367432 -0.11879999935626984 0.07609999924898148 0.7797999978065491 0.6258000135421753 -0.020099999383091927
          0.767300009727478 0.640999972820282 -0.01979999989271164 0.6682000160217285 0.7418000102043152 -0.05660000070929527
          -0.499099999666214 0.09040000289678574 -0.8618000149726868 -0.47209998965263367 0.07779999822378159 -0.8780999779701233
          -0.6414999961853027 0.03799999877810478 -0.7662000060081482 0.3887999951839447 -0.7702000141143799 -0.5055999755859375
          0.7537000179290771 -0.6071000099182129 -0.2515000104904175 0.6306999921798706 -0.6424000263214111 -0.43529999256134033
          -0.5227000117301941 0.020600000396370888 0.8522999882698059 -0.4846000075340271 0.05609999969601631 0.8729000091552734
          -0.4810999929904938 0.0348999984562397 0.8759999871253967 0.9480000138282776 -0.05050000175833702 0.314300000667572
          0.9232000112533569 -0.06260000169277191 0.37929999828338623 0.9541000127792358 -0.047200001776218414 0.29580000042915344
          -0.11150000244379044 0.029500000178813934 0.9933000206947327 -0.1388999968767166 0.055399999022483826 0.9887999892234802
          -0.05429999902844429 0.11890000104904175 0.9914000034332275 0.7937999963760376 -0.0471000000834465 0.6064000129699707
          0.6704999804496765 -0.041600000113248825 0.7407000064849854 0.7523000240325928 0.007899999618530273 0.6588000059127808
          -0.6718000173568726 -0.24320000410079956 -0.6996999979019165 -0.7203999757766724 -0.11299999803304672 -0.6843000054359436
          -0.7590000033378601 -0.2484000027179718 -0.6018000245094299 -0.2498999983072281 0.4726000130176544 -0.8450999855995178
          -0.3147999942302704 0.4609000086784363 -0.829800009727478 -0.1670999974012375 0.5192999839782715 -0.838100016117096
          -0.15320000052452087 -0.016100000590085983 -0.988099992275238 -0.09939999878406525 0.0017999999690800905 -0.9950000047683716
          -0.007899999618530273 0.032499998807907104 -0.9994000196456909 -0.5943999886512756 0.10670000314712524 -0.7971000075340271
          -0.607200026512146 0.07280000299215317 -0.7911999821662903 -0.48420000076293945 0.06830000132322311 -0.8723000288009644
          -0.8901000022888184 0.24869999289512634 0.38190001249313354 -0.9731000065803528 0.15620000660419464 0.1695999950170517
          -0.8708000183105469 0.257999986410141 0.4185999929904938 -0.5418000221252441 -0.018799999728798866 -0.8403000235557556
          -0.49129998683929443 0.041200000792741776 -0.8700000047683716 -0.7053999900817871 0.07240000367164612 -0.7050999999046326
          0.9463000297546387 -0.13819999992847443 0.2922999858856201 0.9569000005722046 -0.12759999930858612 0.26100000739097595
          0.9616000056266785 -0.16830000281333923 0.2167000025510788 0.7882999777793884 -0.18639999628067017 -0.5863999724388123
          0.7738000154495239 -0.18930000066757202 -0.6044999957084656 0.8134999871253967 -0.22660000622272491 -0.5356000065803528
          -0.34380000829696655 0.9377999901771545 -0.04919999837875366 -0.642300009727478 0.7322999835014343 -0.22630000114440918
          -0.3476000130176544 0.9132000207901001 -0.21289999783039093 -0.023900000378489494 0.2703999876976013 -0.9624000191688538
          0.14749999344348907 0.3070000112056732 -0.9401999711990356 0.09000000357627869 0.3626999855041504 -0.9275000095367432
          -0.6710000038146973 -0.7402999997138977 0.04190000146627426 -0.5961999893188477 -0.7818999886512756 0.18209999799728394
          -0.365200012922287 -0.9254999756813049 -0.10090000182390213 -0.397599995136261 -0.1324000060558319 0.9079999923706055
          -0.3391999900341034 -0.34139999747276306 0.8766000270843506 -0.7095000147819519 -0.6100999712944031 0.35269999504089355
          -0.09939999878406525 0.011599999852478504 -0.9950000047683716 -0.004399999976158142 0.0034000000450760126 -1
          -0.17389999330043793 0.005499999970197678 -0.9847000241279602 0.8634999990463257 0.30709999799728394 -0.4000000059604645
          0.9510999917984009 0.3089999854564667 -0.00570000009611249 0.781000018119812 0.52920001745224 -0.33169999718666077
          -0.9010000228881836 -0.42890000343322754 -0.06480000168085098 -0.8970999717712402 -0.38830000162124634 -0.21070000529289246
          -0.9194999933242798 -0.3806000053882599 -0.09849999845027924 -0.5676000118255615 0.07609999924898148 0.8197000026702881
          -0.531000018119812 0.04540000110864639 0.8460999727249146 -0.5873000025749207 0.07079999893903732 0.8062999844551086
          0.22200000286102295 -0.09719999879598618 0.9702000021934509 0.32019999623298645 -0.08139999955892563 0.9438999891281128
          0.2371000051498413 -0.04610000178217888 0.9703999757766724 -0.1216999962925911 -0.9896000027656555 -0.07670000195503235
          -0.16169999539852142 -0.9868000149726868 0.007899999618530273 -0.27959999442100525 -0.9596999883651733 0.03009999915957451
          0.6290000081062317 0.1517000049352646 0.7623999714851379 0.522599995136261 0.12049999833106995 0.843999981880188
          0.6394000053405762 0.22269999980926514 0.7360000014305115 -0.9262999892234802 0.00279999990016222 0.3767000138759613
          -0.9215999841690063 0.3700999915599823 0.11699999868869781 -0.7911999821662903 0.4226999878883362 0.44200000166893005
          -0.16249999403953552 -0.9824000000953674 -0.09179999679327011 -0.2522999942302704 -0.9668999910354614 -0.03759999945759773
          -0.1185000017285347 -0.992900013923645 0.00989999994635582 0.2223999947309494 -0.41589999198913574 -0.8817999958992004
          0.2782000005245209 -0.8427000045776367 -0.4607999920845032 0.2782999873161316 -0.5268999934196472 -0.8030999898910522
          -0.6582000255584717 0.654699981212616 -0.3716999888420105 -0.7462999820709229 0.5938000082969666 -0.30059999227523804
          -0.6862999796867371 0.6700999736785889 -0.2825999855995178 -0.00009999999747378752 0.9815999865531921 0.1906999945640564
          0.01269999984651804 0.9812999963760376 0.19220000505447388 0.18629999458789825 0.9721999764442444 0.14159999787807465
          -0.20589999854564667 -0.9783999919891357 -0.01600000075995922 0.003599999938160181 -0.9987999796867371 -0.049400001764297485
          -0.07079999893903732 -0.9937999844551086 -0.08540000021457672 -0.08980000019073486 -0.9948999881744385 -0.045899998396635056
          -0.24150000512599945 -0.9607999920845032 -0.13619999587535858 -0.08429999649524689 -0.9936000108718872 -0.07490000128746033
          0.7551000118255615 0.04430000111460686 0.6541000008583069 0.7677000164985657 0.033799998462200165 0.6399000287055969
          0.7785999774932861 0.03779999911785126 0.6263999938964844 0.30399999022483826 -0.20250000059604645 0.930899977684021
          0.30559998750686646 -0.029400000348687172 0.95169997215271 0.28870001435279846 -0.15199999511241913 0.9452999830245972
          -0.006599999964237213 0.11699999868869781 -0.9930999875068665 0.24959999322891235 0.05689999833703041 -0.96670001745224
          0.861299991607666 -0.07460000365972519 -0.5026000142097473 0.8202000260353088 -0.06560000032186508 -0.5683000087738037
          0.8478000164031982 -0.07620000094175339 -0.5248000025749207 0.9925000071525574 -0.12150000035762787 0.013299999758601189
          0.9815999865531921 -0.09709999710321426 -0.1647000014781952 0.9602000117301941 -0.029600000008940697 -0.2777999937534332
          0.5309000015258789 0.37220001220703125 0.7613999843597412 0.3450999855995178 0.45239999890327454 0.8223000168800354
          0.48750001192092896 0.44190001487731934 0.753000020980835 0.9348999857902527 0.1785999983549118 -0.30649998784065247
          0.8129000067710876 0.10239999741315842 -0.5734000205993652 0.9355999827384949 -0.04740000143647194 -0.3499000072479248
          0.974399983882904 -0.2176000028848648 -0.05609999969601631 0.8959000110626221 0.23680000007152557 -0.3758000135421753
          0.9793000221252441 0.011300000362098217 -0.2021999955177307 0.9096999764442444 0.1987999975681305 -0.3646000027656555
          0.8471999764442444 0.5144000053405762 -0.1324000060558319 0.794700026512146 0.3409000039100647 -0.5023000240325928
          0.3310000002384186 -0.383899986743927 0.8619999885559082 0.40860000252723694 -0.14329999685287476 0.9014000296592712
          0.2858000099658966 0.2085999995470047 0.9352999925613403 -0.37209999561309814 -0.27570000290870667 0.8863000273704529
          -0.29280000925064087 -0.34880000352859497 0.8902999758720398 -0.27059999108314514 -0.6517999768257141 0.7085000276565552
          -0.6182000041007996 0.7853999733924866 0.030799999833106995 -0.6209999918937683 0.6904000043869019 -0.3711000084877014
          -0.8741000294685364 0.48579999804496765 0.0010000000474974513 -0.9233999848365784 0.16290000081062317 -0.3474999964237213
          -0.836899995803833 0.11599999666213989 -0.5350000262260437 -0.9103000164031982 0.1526000052690506 -0.384799987077713
          -0.8971999883651733 -0.2921000123023987 0.3312000036239624 -0.6101999878883362 -0.5799000263214111 0.5396999716758728
          -0.8015000224113464 -0.4489000141620636 0.3950999975204468 0.28760001063346863 0.728600025177002 0.6215999722480774
          0.22709999978542328 0.7134000062942505 0.6628999710083008 0.18080000579357147 0.7210999727249146 0.6689000129699707
          0.8863000273704529 0.17239999771118164 -0.42989999055862427 0.9057999849319458 0.19120000302791595 -0.3781999945640564
          0.9390000104904175 0.11720000207424164 -0.323199987411499 -0.16910000145435333 0.05480000004172325 0.9840999841690063
          -0.21879999339580536 0.0681999996304512 0.9733999967575073 -0.11500000208616257 0.03880000114440918 0.9926000237464905
          -0.659600019454956 0.16200000047683716 0.7339000105857849 -0.475600004196167 0.1039000004529953 0.8734999895095825
          -0.6227999925613403 0.07199999690055847 0.7789999842643738 0.6229000091552734 0.6039000153541565 -0.49729999899864197
          0.570900022983551 0.573199987411499 -0.5878000259399414 0.6679999828338623 0.506600022315979 -0.5450999736785889
          0.4221000075340271 -0.8492000102996826 0.3172999918460846 0.6653000116348267 -0.38339999318122864 0.6406000256538391
          0.45260000228881836 -0.5863999724388123 0.6718000173568726 -0.042899999767541885 -0.21580000221729279 0.9754999876022339
          -0.024299999698996544 -0.4805999994277954 0.8766000270843506 0.0674000009894371 -0.3199000060558319 0.9451000094413757
          0.5512999892234802 -0.48339998722076416 0.6800000071525574 0.4717999994754791 -0.4821000099182129 0.7382000088691711
          0.5687000155448914 -0.5587000250816345 0.6036999821662903 -0.18019999563694 -0.07400000095367432 -0.9807999730110168
          -0.18119999766349792 0.007000000216066837 -0.9833999872207642 -0.47110000252723694 -0.09459999948740005 -0.8769999742507935
          -0.9718000292778015 0.04960000142455101 -0.23029999434947968 -0.9563999772071838 0.10440000146627426 -0.2728999853134155
          -0.9796000123023987 0.11050000041723251 -0.16760000586509705 -0.04670000076293945 -0.988099992275238 -0.14669999480247498
          -0.26420000195503235 -0.9570000171661377 -0.11969999969005585 -0.04610000178217888 -0.9987999796867371 -0.01549999974668026
          -0.032499998807907104 -0.7825999855995178 -0.6216999888420105 -0.05169999971985817 -0.9496999979019165 -0.30869999527931213
          0.041099999099969864 -0.8852999806404114 -0.46320000290870667 0.951200008392334 -0.29840001463890076 0.07829999923706055
          0.965399980545044 -0.19670000672340393 -0.17139999568462372 0.9595000147819519 -0.23160000145435333 -0.16050000488758087
          0.34200000762939453 0.10010000318288803 0.9344000220298767 0.35740000009536743 -0.1793999969959259 0.9164999723434448
          -0.13379999995231628 -0.07450000196695328 0.9882000088691711 0.9975000023841858 0.047600001096725464 -0.05169999971985817
          0.9549999833106995 0.07289999723434448 -0.28760001063346863 0.9861999750137329 0.062199998646974564 -0.15330000221729279
          0.33959999680519104 0.14309999346733093 0.9296000003814697 0.2590000033378601 0.13210000097751617 0.9567999839782715
          0.2709999978542328 0.14380000531673431 0.9517999887466431 0.6291000247001648 0.0008999999845400453 0.7773000001907349
          0.4964999854564667 0.04340000078082085 0.8669000267982483 0.4860000014305115 0.043800000101327896 0.8729000091552734
          0.5350000262260437 -0.066600002348423 0.842199981212616 0.5953999757766724 -0.07270000129938126 0.8001000285148621
          0.5695000290870667 -0.10559999942779541 0.8151999711990356 0.8797000050544739 0.19589999318122864 -0.4332999885082245
          0.8463000059127808 0.1543000042438507 -0.5098999738693237 0.9355000257492065 0.05339999869465828 -0.3492000102996826
          0.6669999957084656 0.4715999960899353 -0.5767999887466431 0.5271999835968018 0.5095999836921692 -0.6800000071525574
          0.36399999260902405 0.5246000289916992 -0.769599974155426 0.7985000014305115 -0.59579998254776 0.08590000122785568
          0.9519000053405762 -0.288100004196167 -0.10419999808073044 0.6722999811172485 -0.48829999566078186 -0.5564000010490417
          0.3361999988555908 -0.763700008392334 0.5511999726295471 -0.1712000072002411 -0.2782999873161316 0.9451000094413757
          0.06870000064373016 -0.15000000596046448 0.986299991607666 0.9478999972343445 0.07360000163316727 0.3100000023841858
          0.16439999639987946 -0.6391000151634216 0.7512999773025513 0.2847000062465668 -0.6678000092506409 0.6876999735832214
          0.3781000077724457 -0.6171000003814697 0.6899999976158142 -0.8841999769210815 -0.33640000224113464 -0.32409998774528503
          -0.906499981880188 -0.361299991607666 -0.21860000491142273 -0.8776000142097473 -0.36160001158714294 -0.31470000743865967
          -0.6802999973297119 0.36500000953674316 -0.6355000138282776 -0.7077999711036682 0.29899999499320984 -0.6399999856948853
          -0.7441999912261963 0.320499986410141 -0.5860999822616577 -0.7336999773979187 0.10189999639987946 -0.6718000173568726
          -0.714900016784668 0.094200000166893 -0.692799985408783 -0.6759999990463257 0.11829999834299088 -0.727400004863739
          -0.8873999714851379 -0.054999999701976776 0.4578000009059906 -0.8776000142097473 -0.055799998342990875 0.47609999775886536
          -0.8555999994277954 -0.0640999972820282 0.513700008392334 -0.6736000180244446 -0.012000000104308128 -0.7390000224113464
          -0.6452999711036682 -0.036400001496076584 -0.7630000114440918 -0.6556000113487244 -0.013399999588727951 -0.7549999952316284
          -0.8256999850273132 -0.4982999861240387 -0.26429998874664307 -0.4577000141143799 -0.8758000135421753 -0.15309999883174896
          -0.24500000476837158 -0.9682999849319458 -0.048700001090765 -0.31949999928474426 -0.09350000321865082 0.9430000185966492
          -0.29420000314712524 -0.12970000505447388 0.9469000101089478 -0.3831000030040741 -0.09920000284910202 0.91839998960495
          -0.7006999850273132 -0.4982999861240387 0.5105999708175659 -0.6215000152587891 -0.5446000099182129 0.5630999803543091
          -0.6496000289916992 -0.5220999717712402 0.5526000261306763 -0.03819999843835831 -0.12099999934434891 -0.9919000267982483
          -0.5839999914169312 0.06870000064373016 -0.808899998664856 -0.6033999919891357 0.011800000444054604 -0.7973999977111816
          -0.5224999785423279 0.030899999663233757 -0.8521000146865845 -0.9871000051498413 0.031700000166893005 -0.15680000185966492
          -0.9660999774932861 0.06780000030994415 -0.2493000030517578 -0.9919000267982483 0.10419999808073044 -0.07320000231266022
          -0.8562999963760376 0.02419999986886978 0.5157999992370605 -0.8508999943733215 0.0020000000949949026 0.5253000259399414
          -0.8970000147819519 0.01489999983459711 0.44179999828338623 -0.9886000156402588 -0.13490000367164612 -0.06639999896287918
          -0.9837999939918518 -0.17149999737739563 0.052400000393390656 -0.9556999802589417 -0.08669999986886978 0.28130000829696655
          -0.649399995803833 0.16339999437332153 -0.7426999807357788 -0.4603999853134155 0.22679999470710754 -0.8582000136375427
          -0.5467000007629395 0.2858999967575073 -0.7870000004768372 -0.5767999887466431 -0.2799000144004822 0.7674000263214111
          -0.7074999809265137 -0.2425999939441681 0.6638000011444092 -0.4864000082015991 -0.2526000142097473 0.8363999724388123
          -0.16269999742507935 -0.09239999949932098 -0.9822999835014343 -0.358599990606308 -0.14419999718666077 -0.9222999811172485
          -0.4104999899864197 -0.03519999980926514 -0.9111999869346619 0.4287000000476837 0.0015999999595806003 0.9034000039100647
          0.5108000040054321 0.0632999986410141 0.8574000000953674 0.36649999022483826 -0.22169999778270721 0.9035999774932861
          0.7749000191688538 0.10400000214576721 -0.6234999895095825 0.7792999744415283 0.1193000003695488 -0.6151999831199646
          0.7505999803543091 0.15109999477863312 -0.6432999968528748 -0.7638000249862671 0.07580000162124634 -0.640999972820282
          -0.8048999905586243 0.17059999704360962 -0.5683000087738037 -0.8514000177383423 0.028999999165534973 -0.5236999988555908
          -0.32910001277923584 0.30649998784065247 -0.8931999802589417 -0.362199991941452 0.2976999878883362 -0.8833000063896179
          -0.19619999825954437 0.335099995136261 -0.921500027179718 -0.3610999882221222 0.5396000146865845 0.7605999708175659
          0.6287999749183655 0.21819999814033508 0.7462999820709229 -0.32899999618530273 0.01720000058412552 0.9441999793052673
          0.9485999941825867 0.27799999713897705 -0.15119999647140503 0.8858000040054321 0.3312000036239624 -0.32510000467300415
          0.933899998664856 0.28600001335144043 -0.21459999680519104 -0.4733999967575073 0.13670000433921814 -0.870199978351593
          -0.3968999981880188 -0.26899999380111694 -0.8774999976158142 -0.2824000120162964 0.13349999487400055 -0.949999988079071
          -0.10279999673366547 -0.08900000154972076 -0.9907000064849854 -0.45089998841285706 0.16339999437332153 -0.8774999976158142
          0.12520000338554382 -0.04879999905824661 -0.9908999800682068 0.23399999737739563 0.3785000145435333 0.8955000042915344
          0.4812999963760376 0.2655999958515167 0.8353000283241272 0.12300000339746475 -0.2741999924182892 0.9538000226020813
          0.6288999915122986 -0.20190000534057617 -0.7508000135421753 0.5439000129699707 -0.2535000145435333 -0.7998999953269958
          0.5533999800682068 -0.23659999668598175 -0.7986000180244446 -0.05779999867081642 0.6567000150680542 -0.7519000172615051
          0.20190000534057617 0.6306999921798706 -0.7493000030517578 -0.51419997215271 0.48190000653266907 -0.7095000147819519
          -0.46950000524520874 0.6191999912261963 0.6294000148773193 -0.7979999780654907 0.2678000032901764 0.5397999882698059
          -0.7648000121116638 0.6281999945640564 0.1428000032901764 0.38089999556541443 0.009399999864399433 -0.9246000051498413
          0.4032999873161316 0.007799999788403511 -0.9150000214576721 0.4311999976634979 -0.007000000216066837 -0.9021999835968018
          0.9887999892234802 -0.005900000222027302 0.14890000224113464 0.9751999974250793 -0.04010000079870224 0.2175000011920929
          0.9925000071525574 -0.02889999933540821 0.11900000274181366 -0.4212999939918518 0.04639999940991402 0.9057000279426575
          -0.5109999775886536 0.03420000150799751 0.8589000105857849 -0.4410000145435333 0.06069999933242798 0.8955000042915344
          0.2583000063896179 -0.013100000098347664 0.9660000205039978 0.4968000054359436 -0.05299999937415123 0.8662999868392944
          0.4032999873161316 -0.0478999987244606 0.9138000011444092 0.9980999827384949 -0.05999999865889549 0.012000000104308128
          0.979200005531311 -0.023800000548362732 -0.2013999968767166 0.994700014591217 -0.09769999980926514 -0.030899999663233757
          0.5175999999046326 -0.020500000566244125 0.855400025844574 0.28780001401901245 -0.017500000074505806 0.9574999809265137
          0.3508000075817108 -0.039500001817941666 0.9355999827384949 0.6621000170707703 -0.6567000150680542 0.3610000014305115
          0.642799973487854 -0.6072999835014343 0.4668999910354614 0.8281999826431274 -0.1843000054359436 0.5292999744415283
          0.7738999724388123 -0.0940999984741211 0.6262999773025513 0.7584999799728394 -0.08990000188350677 0.6453999876976013
          0.7008000016212463 -0.10260000079870224 0.7059999704360962 -0.2549999952316284 -0.5647000074386597 0.7849000096321106
          -0.08990000188350677 -0.5676000118255615 0.8184000253677368 -0.1607999950647354 -0.45489999651908875 0.8758999705314636
          -0.08720000088214874 0.14710000157356262 0.9853000044822693 -0.10559999942779541 0.20759999752044678 0.9725000262260437
          -0.09130000323057175 0.21439999341964722 0.9725000262260437 0.7013999819755554 -0.14820000529289246 -0.6972000002861023
          0.714900016784668 -0.12380000203847885 -0.6881999969482422 0.6575999855995178 -0.09260000288486481 -0.7476000189781189
          0.1039000004529953 -0.30480000376701355 -0.9466999769210815 -0.031199999153614044 -0.19140000641345978 -0.9810000061988831
          0.1785999983549118 -0.31859999895095825 -0.930899977684021 0.9031000137329102 0.3285999894142151 0.27649998664855957
          0.8812000155448914 0.38580000400543213 0.27309998869895935 0.9550999999046326 0.29589998722076416 0.012000000104308128
          -0.053199999034404755 0.9986000061035156 -0.006800000090152025 -0.22290000319480896 0.9265000224113464 -0.30320000648498535
          0.12919999659061432 0.9836000204086304 -0.1257999986410141 -0.49799999594688416 -0.8201000094413757 0.2818000018596649
          -0.2232999950647354 -0.9079999923706055 0.35440000891685486 -0.15610000491142273 -0.9164999723434448 0.3682999908924103
          -0.76419997215271 -0.5659999847412109 -0.3093000054359436 -0.9265000224113464 -0.3239000141620636 0.19169999659061432
          -0.8125 -0.5825999975204468 -0.01899999938905239 0.9571999907493591 -0.21199999749660492 -0.19709999859333038
          0.656499981880188 -0.7149999737739563 -0.2401999980211258 0.9388999938964844 -0.18780000507831573 -0.28859999775886536
          -0.3781999945640564 -0.9254000186920166 0.024800000712275505 0.5651000142097473 -0.6923999786376953 0.44859999418258667
          0.4945000112056732 -0.8439000248908997 0.20800000429153442 0.27639999985694885 -0.8898000121116638 0.36309999227523804