<?xml version="1.0"?>
<VTKFile type="PolyData" version="0.1" byte_order="LittleEndian" header_type="UInt32" compressor="vtkZLibDataCompressor">
  <PolyData>
    <FieldData>
      <Array type="String" Name="MaterialNames" NumberOfTuples="1" format="ascii">
        109 97 116 101 114 105 97 108 95 48 0
      </Array>
      <Array type="String" Name="MaterialLibraries" NumberOfTuples="1" format="ascii">
        109 97 116 101 114 105 97 108 46 109 116 108 0
      </Array>
    </FieldData>
    <Piece NumberOfPoints="8767" NumberOfVerts="0" NumberOfLines="0" NumberOfStrips="0" NumberOfPolys="17534">
      <PointData Normals="Normals">
        <DataArray type="Float32" Name="Normals" NumberOfComponents="3" format="ascii" RangeMin="0.9999224738783" RangeMax="1.000074856732051">
          -0.2694000005722046 -0.3352999985218048 -0.9028000235557556 -0.5246999859809875 -0.7213000059127808 -0.45210000872612
          -0.7515000104904175 -0.22540000081062317 -0.6201000213623047 -0.49639999866485596 -0.2434999942779541 -0.8331999778747559
          -0.35929998755455017 -0.8015999794006348 -0.47780001163482666 -0.7440999746322632 -0.4153999984264374 -0.5232999920845032
          -0.6884999871253967 -0.705299973487854 -0.16859999299049377 -0.7443000078201294 0.3174999952316284 -0.5875999927520752
          -0.708299994468689 -0.590399980545044 -0.3869999945163727 -0.9375 0.10040000081062317 -0.33320000767707825
          -0.9559000134468079 0.009399999864399433 -0.2935999929904938 -0.6671000123023987 -0.6836000084877014 -0.296099990606308
          -0.9314000010490417 -0.30379998683929443 -0.20059999823570251 -0.08669999986886978 -0.9138000011444092 -0.3968000113964081
          0.19990000128746033 -0.46209999918937683 -0.8640000224113464 -0.08150000125169754 0.11410000175237656 -0.9901000261306763
          -0.6942999958992004 -0.1835000067949295 -0.695900022983551 -0.4884999990463257 0.19419999420642853 -0.8507000207901001
          -0.614300012588501 0.24799999594688416 -0.7491000294685364 -0.5544000267982483 -0.7470999956130981 -0.36660000681877136
          -0.4108000099658966 -0.8797000050544739 -0.23960000276565552 -0.44519999623298645 -0.8425999879837036 -0.30309998989105225
          -0.8102999925613403 0.34860000014305115 -0.47099998593330383 -0.43869999051094055 -0.8176000118255615 -0.37299999594688416
          -0.8959000110626221 0.36070001125335693 -0.25929999351501465 -0.42890000343322754 -0.8406000137329102 -0.33079999685287476
          -0.5241000056266785 -0.7889999747276306 -0.3206999897956848 -0.9330000281333923 0.3257000148296356 -0.15299999713897705
          -0.6291000247001648 -0.7554000020027161 -0.1834000051021576 -0.5126000046730042 -0.8550000190734863 -0.07900000363588333
          -0.8640999794006348 -0.4984999895095825 -0.0697999969124794 -0.9940999746322632 0.10249999910593033 -0.03610000014305115
          -0.7368000149726868 -0.6758999824523926 -0.015799999237060547 -0.965499997138977 -0.23549999296665192 0.11100000143051147
          0.07370000332593918 -0.6559000015258789 -0.7512000203132629 0.1412000060081482 0.056699998676776886 -0.9883999824523926
          -0.30090001225471497 0.23479999601840973 -0.9243000149726868 -0.6366999745368958 0.2540999948978424 -0.7279999852180481
          -0.31220000982284546 -0.9205999970436096 -0.23440000414848328 -0.19949999451637268 -0.9375 -0.28529998660087585
          -0.32350000739097595 -0.8841000199317932 -0.33719998598098755 -0.06889999657869339 -0.965499997138977 -0.25099998712539673
          -0.8870999813079834 0.3889999985694885 -0.2483000010251999 -0.328000009059906 -0.88919997215271 -0.3188999891281128
          -0.04639999940991402 -0.9801999926567078 -0.19249999523162842 -0.919700026512146 0.38119998574256897 -0.0940999984741211
          -0.39890000224113464 -0.8988999724388123 -0.18129999935626984 -0.1193000003695488 -0.9876999855041504 -0.10130000114440918
          -0.9650999903678894 0.2599000036716461 0.031300000846385956 -0.5034999847412109 -0.8562999963760376 -0.11479999870061874
          -0.7386000156402588 -0.633899986743927 -0.22939999401569366 -0.5455999970436096 -0.7935000061988831 -0.2694999873638153
          -0.9523000121116638 -0.24369999766349792 -0.18359999358654022 -0.9947999715805054 -0.1023000031709671 -0.003800000064074993
          -0.7353000044822693 -0.5669000148773193 -0.3714999854564667 -0.5194000005722046 -0.7770000100135803 -0.35569998621940613
          -0.9444000124931335 -0.15379999577999115 -0.2904999852180481 -0.8015000224113464 -0.529699981212616 -0.27730000019073486
          -0.5831000208854675 -0.7914000153541565 -0.1834000051021576 -0.970300018787384 -0.09619999676942825 -0.22190000116825104
          -0.774399995803833 -0.6222000122070312 -0.11479999870061874 -0.4032999873161316 -0.6561999917030334 -0.6377000212669373
          -0.20509999990463257 -0.42160001397132874 -0.8833000063896179 -0.18050000071525574 -0.20229999721050262 -0.9624999761581421
          -0.3095000088214874 -0.40799999237060547 -0.8589000105857849 -0.12049999833106995 -0.11940000206232071 -0.9854999780654907
          -0.357699990272522 -0.8008000254631042 -0.48030000925064087 0.005499999970197678 -0.06880000233650208 -0.9976000189781189
          -0.1526000052690506 0.14100000262260437 -0.9782000184059143 -0.7378000020980835 0.2784999907016754 -0.6148999929428101
          -0.48669999837875366 0.25850000977516174 -0.8343999981880188 -0.6273999810218811 0.35339999198913574 -0.6938999891281128
          -0.32749998569488525 -0.8889999985694885 -0.3199000060558319 -0.8734999895095825 0.29760000109672546 -0.38530001044273376
          -0.815500020980835 0.36160001158714294 -0.45190000534057617 -0.35040000081062317 -0.9215999841690063 -0.16680000722408295
          -0.07970000058412552 -0.9805999994277954 -0.17890000343322754 -0.9235000014305115 0.3240000009536743 -0.20509999990463257
          -0.9086999893188477 0.3353999853134155 -0.2484000027179718 -0.008299999870359898 -0.9884999990463257 -0.15109999477863312
          -0.9300000071525574 0.35920000076293945 -0.07769999653100967 -0.9420999884605408 0.31619998812675476 -0.11190000176429749
          0.003800000064074993 -0.9973000288009644 -0.07400000095367432 -0.9118000268936157 0.41029998660087585 0.01679999940097332
          -0.932699978351593 0.3605000078678131 0.008299999870359898 -0.39640000462532043 -0.9050999879837036 -0.15379999577999115
          -0.07649999856948853 -0.9909999966621399 -0.1096000000834465 -0.993399977684021 0.08049999922513962 -0.08179999887943268
          -0.95660001039505 0.290800005197525 -0.015300000086426735 -0.3776000142097473 -0.8823999762535095 -0.2806999981403351
          -0.0997999981045723 -0.9746999740600586 -0.19990000128746033 -0.9670000076293945 0.20350000262260437 -0.15320000052452087
          -0.9733999967575073 0.21729999780654907 -0.07259999960660934 -0.42179998755455017 -0.8826000094413757 -0.20759999752044678
          -0.21060000360012054 -0.9652000069618225 -0.15520000457763672 -0.9538000226020813 0.2370000034570694 -0.18440000712871552
          -0.5026000142097473 -0.8571000099182129 -0.1128000020980835 -0.7687000036239624 -0.5936999917030334 -0.23800000548362732
          -0.5479999780654907 -0.8026999831199646 -0.2354000061750412 -0.9781000018119812 -0.05260000005364418 -0.2012999951839447
          -0.8389999866485596 -0.5410000085830688 -0.05779999867081642 -0.5166000127792358 -0.8471999764442444 -0.12370000034570694
          -0.992900013923645 -0.04309999942779541 -0.11100000143051147 -0.3562000095844269 -0.7754999995231628 -0.5213000178337097
          -0.2816999852657318 -0.4832000136375427 -0.8288999795913696 -0.17270000278949738 -0.05000000074505806 -0.9836999773979187
          -0.09570000320672989 -0.0007999999797903001 -0.9954000115394592 -0.08139999955892563 0.029600000008940697 -0.9962000250816345
          -0.07699999958276749 0.014299999922513962 -0.9969000220298767 -0.13189999759197235 0.12559999525547028 -0.983299970626831
          -0.1347000002861023 0.11640000343322754 -0.984000027179718 -0.3677999973297119 -0.8930000066757202 -0.25929999351501465
          -0.3765999972820282 -0.8406000137329102 -0.38940000534057617 -0.35260000824928284 0.2759000062942505 -0.8942000269889832
          -0.6345999836921692 0.4325999915599823 -0.6403999924659729 -0.31619998812675476 -0.9316999912261963 -0.17880000174045563
          -0.8314999938011169 0.4311999976634979 -0.35030001401901245 -0.3707999885082245 -0.92330002784729 -0.10029999911785126
          -0.3441999852657318 -0.9240999817848206 -0.16590000689029694 -0.9003999829292297 0.40529999136924744 -0.15809999406337738
          -0.25519999861717224 -0.9417999982833862 -0.21889999508857727 -0.2615000009536743 -0.9521999955177307 -0.15800000727176666
          -0.9419999718666077 0.3305000066757202 -0.05779999867081642 -0.22679999470710754 -0.9641000032424927 -0.13779999315738678
          -0.18709999322891235 -0.9807999730110168 -0.05460000038146973 -0.9125999808311462 0.4074999988079071 0.03189999982714653
          -0.9564999938011169 0.28940001130104065 0.03629999980330467 -0.030899999663233757 -0.9914000034332275 -0.12729999423027039
          -0.9136000275611877 0.40209999680519104 -0.06040000170469284 -0.08100000023841858 -0.9664000272750854 -0.24410000443458557
          -0.9591000080108643 0.23280000686645508 -0.16089999675750732 -0.9496999979019165 0.2890999913215637 -0.11999999731779099
          -0.15929999947547913 -0.9610999822616577 -0.22579999268054962 -0.9480999708175659 0.2648000121116638 -0.17579999566078186
          -0.41600000858306885 -0.8992000222206116 -0.13539999723434448 -0.3091999888420105 -0.9395999908447266 -0.1467999964952469
          -0.9549999833106995 0.2689000070095062 -0.12540000677108765 -0.9567000269889832 0.2705000042915344 -0.10790000110864639
          -0.47360000014305115 -0.8513000011444092 -0.22599999606609344 -0.20239999890327454 -0.9707000255584717 -0.12970000505447388
          -0.9757000207901001 0.2126999944448471 0.05310000106692314 -0.5285999774932861 -0.8348000049591064 -0.15399999916553497
          -0.1793999969959259 -0.9790999889373779 0.09529999643564224 -0.9355000257492065 -0.35339999198913574 0.0013000000035390258
          -0.6851999759674072 -0.6140999794006348 0.39149999618530273 -0.9498000144958496 -0.04399999976158142 0.3098999857902527
          -0.44020000100135803 -0.6114000082015991 -0.6575999855995178 -0.24210000038146973 -0.37630000710487366 -0.8942999839782715
          -0.36500000953674316 -0.6988000273704529 -0.6151000261306763 -0.3375999927520752 -0.44589999318122864 -0.8289999961853027
          -0.32589998841285706 -0.11969999969005585 -0.9377999901771545 -0.19939999282360077 0.00019999999494757503 -0.9799000024795532
          -0.3725000023841858 -0.7918999791145325 -0.48399999737739563 -0.07699999958276749 0.09009999781847 -0.9929999709129333
          -0.0414000004529953 0.061400000005960464 -0.9973000288009644 -0.38760000467300415 -0.8858000040054321 -0.25529998540878296
          -0.4004000127315521 -0.8611000180244446 -0.3133000135421753 -0.4546999931335449 0.22169999778270721 -0.8626000285148621
          -0.3846000134944916 0.11050000041723251 -0.9164999723434448 -0.7109000086784363 0.32899999618530273 -0.6215999722480774
          -0.42289999127388 -0.9010000228881836 -0.09690000116825104 -0.30140000581741333 -0.9491999745368958 -0.09070000052452087
          -0.8087999820709229 0.37290000915527344 -0.454800009727478 -0.8701000213623047 0.3986999988555908 -0.2896000146865845
          -0.8726999759674072 0.30250000953674316 -0.3833000063896179 -0.3206000030040741 -0.9424999952316284 -0.0940999984741211
          -0.24660000205039978 -0.9679999947547913 -0.046799998730421066 -0.8986999988555908 0.3955000042915344 -0.18960000574588776
          -0.9067999720573425 0.3278999924659729 -0.2646999955177307 -0.23340000212192535 -0.9660000205039978 -0.11159999668598175
          0.044599998742341995 -0.9739000201225281 0.2223999947309494 -0.9304999709129333 0.3580999970436096 -0.07699999958276749
          0.06319999694824219 -0.9681000113487244 0.24240000545978546 0.18539999425411224 -0.9569000005722046 0.22370000183582306
          -0.9571999907493591 0.28940001130104065 0.004999999888241291 -0.9682000279426575 0.2500999867916107 0.00279999990016222
          -0.18860000371932983 -0.9757999777793884 -0.11069999635219574 -0.0031999999191612005 -0.9847000241279602 -0.17399999499320984
          -0.9631999731063843 0.26820001006126404 -0.014800000004470348 -0.18170000612735748 -0.9320999979972839 -0.3133000135421753
          -0.179299995303154 -0.9057999849319458 -0.3840000033378601 -0.902999997138977 0.40790000557899475 -0.13500000536441803
          -0.2734000086784363 -0.9013000130653381 -0.3361999988555908 -0.9067999720573425 0.392300009727478 -0.15399999916553497
          -0.9388999938964844 0.32519999146461487 -0.11289999634027481 -0.40849998593330383 -0.9107999801635742 -0.06019999831914902
          -0.20010000467300415 -0.9786999821662903 -0.045499999076128006 -0.965499997138977 0.25540000200271606 0.051899999380111694
          -0.9632999897003174 0.2685000002384186 -0.006200000178068876 -0.2639999985694885 -0.9613000154495239 0.07890000194311142
          -0.9377999901771545 0.20720000565052032 0.2786000072956085 -0.9430999755859375 0.26260000467300415 0.20399999618530273
          -0.5569999814033508 -0.5216000080108643 0.6462000012397766 -0.758400022983551 0.0989999994635582 0.6442000269889832
          -0.3109000027179718 -0.5717999935150146 -0.7591999769210815 -0.052299998700618744 -0.43630000948905945 -0.8982999920845032
          -0.1671999990940094 -0.8492000102996826 -0.5008999705314636 -0.1589999943971634 -0.15309999883174896 -0.9753000140190125
          -0.30399999022483826 -0.8342999815940857 -0.45989999175071716 -0.07020000368356705 -0.9373000264167786 -0.34139999747276306
          -0.24789999425411224 -0.1518000066280365 -0.9567999839782715 -0.18619999289512634 0.07490000128746033 -0.9797000288963318
          -0.17520000040531158 0.11249999701976776 -0.9781000018119812 -0.22699999809265137 0.10400000214576721 -0.9682999849319458
          -0.17630000412464142 0.11240000277757645 -0.9779000282287598 -0.3149999976158142 -0.8633999824523926 -0.39410001039505005
          -0.049400001764297485 -0.9623000025749207 -0.26739999651908875 -0.0027000000700354576 0.07190000265836716 -0.9973999857902527
          -0.07209999859333038 0.06210000067949295 -0.9955000281333923 -0.2632000148296356 0.09399999678134918 -0.9602000117301941
          -0.5045999884605408 0.11739999800920486 -0.855400025844574 -0.33739998936653137 -0.9088000059127808 -0.24539999663829803
          -0.11590000241994858 -0.9833999872207642 -0.13989999890327454 -0.7924000024795532 0.26010000705718994 -0.551800012588501
          -0.6717000007629395 0.18410000205039978 -0.7175999879837036 -0.7763000130653381 0.29350000619888306 -0.5577999949455261
          -0.3813000023365021 -0.9225999712944031 -0.05860000103712082 -0.399399995803833 -0.9138000011444092 -0.07460000365972519
          -0.8690000176429749 0.35499998927116394 -0.34470000863075256 -0.4431999921798706 -0.8514999747276306 0.2802000045776367
          -0.9305999875068665 0.3224000036716461 -0.17329999804496765 -0.9215999841690063 0.32910001277923584 -0.20589999854564667
          0.07129999995231628 -0.7728000283241272 0.6305999755859375 -0.9323999881744385 0.358599990606308 -0.045499999076128006
          -0.9412999749183655 0.3264999985694885 -0.08590000122785568 0.4803999960422516 -0.5685999989509583 0.6676999926567078
          0.7376999855041504 -0.654699981212616 0.1647000014781952 -0.930400013923645 0.366100013256073 0.016300000250339508
          -0.9352999925613403 0.3528999984264374 0.026499999687075615 0.1598999947309494 -0.8729000091552734 -0.4609000086784363
          -0.947700023651123 0.310699999332428 -0.0722000002861023 -0.961899995803833 0.2669000029563904 -0.058800000697374344
          -0.193900004029274 -0.8651000261306763 -0.4627000093460083 0.13740000128746033 -0.8084999918937683 -0.5722000002861023
          -0.27410000562667847 -0.8237000107765198 -0.49639999866485596 -0.9021999835968018 0.40950000286102295 -0.1354999989271164
          -0.9570000171661377 0.2599000036716461 -0.1290999948978424 -0.32429999113082886 -0.9072999954223633 -0.26759999990463257
          -0.8978000283241272 0.4230000078678131 -0.12269999831914902 -0.2969000041484833 -0.9405999779701233 -0.16500000655651093
          -0.9104999899864197 0.4113999903202057 -0.04149999842047691 -0.4147999882698059 -0.906499981880188 -0.07810000330209732
          -0.40779998898506165 -0.9053000211715698 -0.11909999698400497 -0.9233999848365784 0.36250001192092896 0.12630000710487366
          -0.5087000131607056 -0.8605999946594238 -0.02590000070631504 -0.3894999921321869 -0.916100025177002 -0.09510000050067902
          -0.796500027179718 0.28029999136924744 0.5357999801635742 -0.8565000295639038 0.2935999929904938 0.4246000051498413
          -0.5152999758720398 -0.7059000134468079 0.48590001463890076 -0.5167999863624573 -0.09350000321865082 0.8510000109672546
          -0.651199996471405 0.1500999927520752 0.7439000010490417 -0.1046999990940094 -0.8894000053405762 -0.4449999928474426
          0.20180000364780426 -0.48339998722076416 -0.8518000245094299 0.12610000371932983 -0.05119999870657921 -0.9907000064849854
          -0.1851000040769577 0.05829999968409538 -0.9810000061988831 -0.026799999177455902 0.050200000405311584 -0.9983999729156494
          -0.15379999577999115 0.09950000047683716 -0.9830999970436096 -0.0957999974489212 -0.9593999981880188 -0.2651999890804291
          -0.1687999963760376 0.10639999806880951 -0.9799000024795532 -0.18060000240802765 0.1264999955892563 -0.9753999710083008
          -0.14010000228881836 0.09709999710321426 -0.9854000210762024 -0.19840000569820404 0.10100000351667404 -0.9749000072479248
          -0.1525000035762787 0.07440000027418137 -0.9854999780654907 -0.03669999912381172 -0.967199981212616 -0.25130000710487366
          -0.02500000037252903 0.07429999858140945 -0.9969000220298767 -0.04349999874830246 0.02979999966919422 -0.9986000061035156
          -0.12460000067949295 0.09570000320672989 -0.9876000285148621 -0.6146000027656555 0.21140000224113464 -0.7599999904632568
          -0.3483000099658966 0.21580000221729279 -0.9121999740600586 -0.593999981880188 0.3774999976158142 -0.7103999853134155
          -0.13930000364780426 -0.9724000096321106 -0.1873999983072281 -0.7789999842643738 0.42010000348091125 -0.46540001034736633
          -0.33379998803138733 -0.9401999711990356 -0.06849999725818634 -0.871999979019165 0.4253999888896942 -0.24230000376701355
          -0.2750000059604645 -0.9596999883651733 0.05689999833703041 -0.9108999967575073 0.3919999897480011 -0.12860000133514404
          -0.3944999873638153 -0.7264999747276306 0.5626999735832214 -0.4050000011920929 -0.33559998869895935 0.8504999876022339
          0.04470000043511391 -0.3158999979496002 0.9477999806404114 0.3346000015735626 -0.36410000920295715 0.8691999912261963
          0.476500004529953 -0.2272000014781952 0.8493000268936157 -0.9427000284194946 0.33169999718666077 -0.03500000014901161
          0.7990000247955322 -0.26910001039505005 0.5378000140190125 0.9136999845504761 -0.40299999713897705 -0.052299998700618744
          0.890999972820282 -0.4032999873161316 0.2085999995470047 -0.9192000031471252 0.3935999870300293 -0.008299999870359898
          -0.9514999985694885 0.30630001425743103 0.02979999966919422 -0.40540000796318054 -0.5916000008583069 -0.6969000101089478
          -0.31610000133514404 -0.36250001192092896 -0.876800000667572 -0.45249998569488525 -0.6261000037193298 -0.6349999904632568
          -0.22769999504089355 -0.3043000102043152 -0.925000011920929 0.7997999787330627 -0.3625999987125397 -0.47839999198913574
          0.541100025177002 -0.6151999831199646 -0.5733000040054321 -0.9200999736785889 0.3797000050544739 -0.09600000083446503
          -0.3675999939441681 -0.8176000118255615 -0.4431000053882599 -0.020899999886751175 -0.5952000021934509 -0.8033000230789185
          -0.9406999945640564 0.2897000014781952 -0.1762000024318695 -0.9460999965667725 0.29350000619888306 -0.13660000264644623
          -0.36809998750686646 -0.8805999755859375 -0.29829999804496765 -0.9401000142097473 0.31619998812675476 -0.1273999959230423
          -0.9495999813079834 0.2831000089645386 -0.1348000019788742 -0.40149998664855957 -0.9072999954223633 -0.12479999661445618
          -0.29350000619888306 -0.9448999762535095 -0.1451999992132187 -0.917900025844574 0.3968999981880188 -0.00009999999747378752
          -0.9524000287055969 0.29600000381469727 -0.0723000019788742 -0.3492000102996826 -0.9204000234603882 -0.17569999396800995
          -0.8776999711990356 0.39660000801086426 0.2687999904155731 -0.3776000142097473 -0.9103000164031982 -0.16940000653266907
          -0.43790000677108765 -0.8755999803543091 -0.20389999449253082 -0.7052000164985657 0.26339998841285706 0.65829998254776
          -0.7793999910354614 0.30079999566078186 0.5496000051498413 -0.6263999938964844 -0.7724000215530396 -0.10540000349283218
          -0.0575999990105629 -0.906000018119812 0.41929998993873596 -0.6029999852180481 -0.36570000648498535 0.7089999914169312
          -0.7842000126838684 -0.2935999929904938 0.5465999841690063 -0.4674000144004822 -0.0494999997317791 0.8826000094413757
          -0.5918999910354614 0.16220000386238098 0.7894999980926514 -0.3578999936580658 -0.7516000270843506 0.554099977016449
          0.43050000071525574 -0.29420000314712524 -0.8532999753952026 0.2676999866962433 -0.7799000144004822 -0.5658000111579895
          0.2784999907016754 -0.03200000151991844 -0.9599000215530396 0.07490000128746033 0.05950000137090683 -0.9954000115394592
          -0.13529999554157257 0.08720000088214874 -0.9869999885559082 -0.21119999885559082 0.1071000024676323 -0.9714999794960022
          -0.16590000689029694 -0.9093999862670898 -0.3813000023365021 -0.16699999570846558 0.13439999520778656 -0.9768000245094299
          -0.1696999967098236 0.09560000151395798 -0.9807999730110168 -0.07429999858140945 0.012299999594688416 -0.9972000122070312
          -0.14419999718666077 0.02800000086426735 -0.9891999959945679 -0.08079999685287476 0.016699999570846558 -0.9965999722480774
          -0.08910000324249268 0.06129999831318855 -0.9940999746322632 -0.30959999561309814 -0.883899986743927 -0.3504999876022339
          -0.24580000340938568 -0.9060999751091003 -0.3443000018596649 -0.12139999866485596 0.11710000038146973 -0.9857000112533569
          -0.30000001192092896 0.26820001006126404 -0.9154999852180481 -0.6238999962806702 0.36090001463890076 -0.6931999921798706
          -0.2718999981880188 -0.9146000146865845 -0.2994000017642975 -0.30399999022483826 -0.9297000169754028 -0.2079000025987625
          -0.7581999897956848 0.38960000872612 -0.5228999853134155 -0.8314999938011169 0.3953000009059906 -0.3901999890804291
          -0.8066999912261963 0.3222000002861023 -0.49540001153945923 -0.32519999146461487 -0.9269000291824341 -0.1873999983072281
          -0.262800008058548 -0.9599000215530396 -0.09730000048875809 -0.9023000001907349 0.34860000014305115 -0.25380000472068787
          -0.9007999897003174 0.28600001335144043 -0.32679998874664307 -0.4275999963283539 -0.9034000039100647 -0.03370000049471855
          -0.3869999945163727 -0.9218000173568726 0.023099999874830246 -0.9294000267982483 0.35190001130104065 -0.11150000244379044
          -0.9424999952316284 0.2614000141620636 -0.20829999446868896 -0.7245000004768372 -0.595300018787384 0.3476000130176544
          -0.3587000072002411 -0.11289999634027481 0.9265999794006348 -0.05299999937415123 -0.14579999446868896 0.9879000186920166
          0.2754000127315521 -0.2597000002861023 0.925599992275238 0.6434000134468079 -0.2872999906539917 0.7095999717712402
          0.6315000057220459 -0.4230000078678131 0.6498000025749207 -0.9165999889373779 0.39890000224113464 -0.02669999934732914
          -0.506600022315979 -0.5565000176429749 -0.6585000157356262 -0.5473999977111816 -0.5874000191688538 -0.5960999727249146
          -0.30469998717308044 -0.8949000239372253 -0.32600000500679016 -0.6309000253677368 0.007199999876320362 -0.7759000062942505
          0.890999972820282 -0.453900009393692 -0.0010999999940395355 -0.953499972820282 0.2969000041484833 -0.05249999836087227
          -0.9596999883651733 0.2800000011920929 -0.02500000037252903 -0.3578999936580658 -0.8482999801635742 -0.3903000056743622
          -0.11150000244379044 -0.946399986743927 -0.30309998989105225 -0.41999998688697815 -0.04610000178217888 -0.9064000248908997
          0.26510000228881836 -0.4632999897003174 -0.8456000089645386 0.1282999962568283 -0.19300000369548798 -0.9728000164031982
          0.7782999873161316 -0.2563000023365021 -0.573199987411499 -0.9172999858856201 0.3849000036716461 -0.10209999978542328
          -0.9435999989509583 0.3133000135421753 -0.1071000024676323 -0.3424000144004822 -0.8626999855041504 -0.37229999899864197
          -0.09549999982118607 -0.9592999815940857 -0.26579999923706055 -0.9093999862670898 0.3991999924182892 -0.11659999936819077
          -0.3562999963760376 -0.9101999998092651 -0.21119999885559082 -0.1274999976158142 -0.9785000085830688 -0.16200000047683716
          -0.916700005531311 0.3919999897480011 -0.07720000296831131 -0.37220001220703125 -0.9107999801635742 -0.17829999327659607
          -0.955299973487854 0.2935999929904938 0.033799998462200165 -0.9416000247001648 0.3368000090122223 0.00009999999747378752
          -0.3709000051021576 -0.8974000215530396 -0.23880000412464142 -0.3605000078678131 -0.9036999940872192 -0.23109999299049377
          -0.9200999736785889 0.29339998960494995 0.25940001010894775 -0.948199987411499 0.29249998927116394 0.12380000203847885
          -0.414900004863739 -0.9054999947547913 -0.08869999647140503 -0.40720000863075256 -0.9100000262260437 -0.07779999822378159
          -0.61080002784729 0.26159998774528503 0.7473000288009644 -0.7279999852180481 0.23589999973773956 0.6437000036239624
          -0.5218999981880188 -0.7123000025749207 0.46939998865127563 -0.2371000051498413 -0.3287999927997589 0.9142000079154968
          -0.08590000122785568 -0.14970000088214874 0.9850000143051147 -0.41040000319480896 -0.06459999829530716 0.909600019454956
          -0.4348999857902527 0.05810000002384186 0.8985999822616577 -0.4706000089645386 0.18299999833106995 0.863099992275238
          0.41780000925064087 -0.258899986743927 -0.8708999752998352 0.23929999768733978 -0.6647999882698059 -0.7077000141143799
          0.2962000072002411 -0.06210000067949295 -0.9531000256538391 0.14740000665187836 0.021900000050663948 -0.9887999892234802
          -0.03889999911189079 0.060600001364946365 -0.9973999857902527 -0.21950000524520874 0.12520000338554382 -0.9674999713897705
          -0.22609999775886536 0.09019999951124191 -0.9699000120162964 -0.2540999948978424 0.09920000284910202 -0.9621000289916992
          -0.17870000004768372 -0.8295999765396118 -0.5289999842643738 0.14980000257492065 -0.6671000123023987 -0.7297999858856201
          -0.1907999962568283 -0.8483999967575073 -0.4936999976634979 -0.13420000672340393 0.023800000548362732 -0.9907000064849854
          -0.10159999877214432 0.02969999983906746 -0.9944000244140625 -0.12600000202655792 0.12210000306367874 -0.984499990940094
          -0.11309999972581863 0.07119999825954437 -0.9909999966621399 -0.2084999978542328 0.09239999949932098 -0.9735999703407288
          -0.2775999903678894 -0.8770999908447266 -0.3919000029563904 -0.2498999983072281 0.16459999978542328 -0.954200029373169
          -0.7087000012397766 0.31450000405311584 -0.6315000057220459 -0.5328999757766724 0.2198999971151352 -0.8170999884605408
          -0.6937999725341797 0.2791000008583069 -0.6638000011444092 -0.35899999737739563 -0.902899980545044 -0.23649999499320984
          -0.8216999769210815 0.321399986743927 -0.4706999957561493 -0.3865000009536743 -0.9083999991416931 -0.15919999778270721
          -0.2581999897956848 -0.9549000263214111 -0.14640000462532043 -0.886900007724762 0.3767000138759613 -0.26739999651908875
          -0.47369998693466187 -0.8693000078201294 -0.14090000092983246 -0.38760000467300415 -0.8889999985694885 -0.24390000104904175
          -0.935699999332428 0.33169999718666077 -0.12060000002384186 -0.48660001158714294 -0.8069999814033508 -0.3345000147819519
          -0.4104999899864197 -0.8492000102996826 -0.33230000734329224 -0.6922000050544739 -0.6352999806404114 -0.3425000011920929
          -0.9283999800682068 0.052299998700618744 -0.3677999973297119 -0.760200023651123 0.07699999958276749 0.6450999975204468
          -0.10920000076293945 -0.045499999076128006 0.9929999709129333 0.26409998536109924 -0.2320999950170517 0.9362000226974487
          0.8234999775886536 -0.34220001101493835 0.45249998569488525 -0.902899980545044 0.42980000376701355 0.005499999970197678
          -0.9422000050544739 0.335099995136261 -0.0005000000237487257 -0.44749999046325684 -0.8300999999046326 -0.3328000009059906
          -0.4499000012874603 -0.8618000149726868 -0.23409999907016754 -0.5077000260353088 0.22840000689029694 -0.8306999802589417
          0.8435999751091003 -0.43380001187324524 -0.3163999915122986 -0.9046000242233276 0.4262000024318695 -0.0006000000284984708
          -0.9241999983787537 0.3806000053882599 0.030500000342726707 -0.4341000020503998 -0.8878999948501587 -0.15209999680519104
          -0.17479999363422394 -0.9587000012397766 -0.22439999878406525 -0.054999999701976776 0.08009999990463257 -0.9952999949455261
          0.5130000114440918 -0.17910000681877136 -0.8395000100135803 -0.9265000224113464 0.3686999976634979 -0.07569999992847443
          -0.06369999796152115 -0.9671000242233276 -0.24639999866485596 -0.9273999929428101 0.3598000109195709 -0.10260000079870224