<?xml version="1.0"?>
<VTKFile type="PolyData" version="0.1" byte_order="LittleEndian" header_type="UInt32" compressor="vtkZLibDataCompressor">
  <PolyData>
    <FieldData>
      <Array type="String" Name="MaterialNames" NumberOfTuples="1" format="ascii">
        109 97 116 101 114 105 97 108 95 48 0
      </Array>
      <Array type="String" Name="MaterialLibraries" NumberOfTuples="1" format="ascii">
        109 97 116 101 114 105 97 108 46 109 116 108 0
      </Array>
    </FieldData>
    <Piece NumberOfPoints="19672" NumberOfVerts="0" NumberOfLines="0" NumberOfStrips="0" NumberOfPolys="39360">
      <PointData Normals="Normals">
        <DataArray type="Float32" Name="Normals" NumberOfComponents="3" format="ascii" RangeMin="0.9999246823630693" RangeMax="1.0000776366115707">
          -0.4120999872684479 -0.7353000044822693 0.5379999876022339 -0.6746000051498413 -0.17430000007152557 0.7172999978065491
          -0.6779999732971191 -0.42649999260902405 0.5986999869346619 -0.28139999508857727 -0.7993000149726868 0.5309000015258789
          -0.5238000154495239 -0.3312000036239624 0.7847999930381775 -0.17820000648498535 -0.8278999924659729 0.5317999720573425
          -0.3865000009536743 -0.3889000117778778 0.8363000154495239 0.017799999564886093 -0.8223000168800354 0.5687999725341797
          -0.18940000236034393 -0.4237000048160553 0.8858000040054321 0.24420000612735748 -0.6855999827384949 0.6858000159263611
          -0.39410001039505005 -0.8260999917984009 0.40290001034736633 -0.7688999772071838 -0.2964000105857849 0.5666000247001648
          -0.6653000116348267 -0.573199987411499 0.47839999198913574 -0.2443999946117401 -0.9036999940872192 0.3513999879360199
          -0.1671999990940094 -0.9133999943733215 0.37119999527931213 -0.06780000030994415 -0.9240999817848206 0.37610000371932983
          0.21310000121593475 -0.9070000052452087 0.36320000886917114 -0.37540000677108765 -0.8870999813079834 0.2685000002384186
          -0.7443000078201294 -0.5392000079154968 0.39419999718666077 -0.8169000148773193 -0.535099983215332 0.2150000035762787
          -0.2547999918460846 -0.9214000105857849 0.29330000281333923 -0.1712999939918518 -0.9402999877929688 0.2939999997615814
          -0.0860000029206276 -0.954800009727478 0.2847000062465668 0.193900004029274 -0.9564999938011169 0.21799999475479126
          0.40450000762939453 -0.904699981212616 0.13379999995231628 0.36649999022483826 -0.9150000214576721 0.16869999468326569
          -0.6819999814033508 -0.707099974155426 0.1868000030517578 -0.3246999979019165 -0.9221000075340271 0.21060000360012054
          -0.17919999361038208 -0.9546999931335449 0.23759999871253967 -0.07119999825954437 -0.972000002861023 0.2240999937057495
          0.21940000355243683 -0.9659000039100647 0.1371999979019165 0.44200000166893005 -0.8956999778747559 0.04969999939203262
          0.4424999952316284 -0.89410001039505 0.06889999657869339 -0.39910000562667847 -0.8888999819755554 0.2248000055551529
          -0.8454999923706055 -0.5194000005722046 0.12370000034570694 -0.25 -0.9455000162124634 0.20839999616146088
          -0.09780000150203705 -0.9735999703407288 0.20630000531673431 0.22619999945163727 -0.9653000235557556 0.13079999387264252
          0.27639999985694885 -0.9549000263214111 0.10859999805688858 0.450300008058548 -0.8920999765396118 0.03660000115633011
          -0.4912000000476837 -0.8562999963760376 0.15950000286102295 -0.8955000042915344 -0.43869999051094055 0.07479999959468842
          -0.8475000262260437 -0.5275999903678894 -0.057100001722574234 -0.29089999198913574 -0.9362999796867371 0.19679999351501465
          -0.14059999585151672 -0.9610000252723694 0.23810000717639923 0.14169999957084656 -0.9692000150680542 0.20170000195503235
          0.41350001096725464 -0.8949999809265137 0.1671999990940094 0.28850001096725464 -0.9412000179290771 0.1761000007390976
          -0.725600004196167 -0.6837000250816345 -0.07800000160932541 -0.28780001401901245 -0.9490000009536743 0.12839999794960022
          -0.09070000052452087 -0.9761000275611877 0.19760000705718994 0.2662000060081482 -0.9477999806404114 0.17579999566078186
          0.24529999494552612 -0.9462000131607056 0.2110999971628189 -0.28189998865127563 -0.9550999999046326 0.09160000085830688
          -0.7021999955177307 -0.7021999955177307 -0.11749999970197678 0.1362999975681305 -0.987500011920929 0.07880000025033951
          0.4253000020980835 -0.9047999978065491 0.019899999722838402 0.25459998846054077 -0.9610000252723694 0.10769999772310257
          -0.04780000075697899 -0.9973000288009644 0.05480000004172325 -0.7143999934196472 -0.6797999739646912 -0.16590000689029694
          0.35339999198913574 -0.9352999925613403 -0.01850000023841858 0.42289999127388 -0.9061999917030334 -0.004800000227987766
          -0.7312999963760376 -0.570900022983551 -0.373199999332428 -0.181099995970726 -0.9818999767303467 0.055799998342990875
          0.2863999903202057 -0.9545000195503235 0.08309999853372574 0.3521000146865845 -0.9358999729156494 0.014499999582767487
          -0.13379999995231628 -0.9775000214576721 -0.16279999911785126 -0.5759999752044678 -0.4147999882698059 -0.7045000195503235
          0.3416999876499176 -0.9298999905586243 -0.13609999418258667 0.17900000512599945 -0.727400004863739 -0.6625000238418579
          -0.7056999802589417 0.1412000060081482 0.6942999958992004 -0.7631999850273132 0.08209999650716782 0.6409000158309937
          -0.5935999751091003 0.12269999831914902 0.7954000234603882 -0.47870001196861267 0.0794999971985817 0.8744000196456909
          -0.37290000915527344 0.0357000008225441 0.9272000193595886 0.06080000102519989 -0.7498000264167786 0.6588000059127808
          -0.2295999974012375 -0.2822999954223633 0.9315000176429749 -0.19779999554157257 -0.8073999881744385 0.5558000206947327
          -0.3237999975681305 -0.4334000051021576 0.8410000205039978 -0.2831999957561493 -0.7979999780654907 0.5318999886512756
          -0.4537999927997589 -0.37709999084472656 0.8073999881744385 -0.24779999256134033 -0.8321999907493591 0.4959999918937683
          -0.42879998683929443 -0.45750001072883606 0.7789999842643738 -0.26350000500679016 -0.822700023651123 0.5037000179290771
          -0.44589999318122864 -0.4287000000476837 0.7857000231742859 -0.22990000247955322 -0.8274000287055969 0.5123000144958496
          -0.3968999981880188 -0.44449999928474426 0.8030999898910522 -0.34529998898506165 -0.5735999941825867 0.7427999973297119
          -0.18809999525547028 -0.8252999782562256 0.5325000286102295 -0.3644999861717224 -0.3856000006198883 0.847599983215332
          -0.20280000567436218 -0.5442000031471252 0.8141000270843506 0.1777999997138977 -0.8697999715805054 0.4602000117301941
          0.10029999911785126 -0.44519999623298645 0.8898000121116638 0.4472000002861023 -0.6254000067710876 0.6395000219345093
          -0.9071999788284302 -0.059700001031160355 0.4165000021457672 -0.8816999793052673 0.09350000321865082 0.46239998936653137
          -0.9277999997138977 0.07119999825954437 0.36629998683929443 -0.8108999729156494 0.11169999837875366 0.574400007724762
          0.03620000183582306 -0.9214000105857849 0.38690000772476196 -0.17739999294281006 -0.9056000113487244 0.38519999384880066
          -0.19099999964237213 -0.9089999794960022 0.37040001153945923 -0.17569999396800995 -0.9117000102996826 0.3714999854564667
          -0.13699999451637268 -0.9042999744415283 0.4043999910354614 -0.10670000314712524 -0.9192000031471252 0.3790999948978424
          0.15970000624656677 -0.9391000270843506 0.3041999936103821 0.4453999996185303 -0.8772000074386597 0.17919999361038208
          -0.9648000001907349 -0.16459999978542328 0.20499999821186066 -0.9588000178337097 0.042100001126527786 0.2808000147342682
          -0.9736999869346619 -0.16660000383853912 0.15569999814033508 0.23149999976158142 -0.9574000239372253 0.17260000109672546
          -0.051899999380111694 -0.9555000066757202 0.29030001163482666 -0.10589999705553055 -0.9574999809265137 0.26840001344680786
          -0.12070000171661377 -0.9465000033378601 0.2992999851703644 -0.14219999313354492 -0.9448000192642212 0.295199990272522
          -0.14319999516010284 -0.9437999725341797 0.2976999878883362 -0.13030000030994415 -0.9469000101089478 0.2939999997615814
          -0.050200000405311584 -0.9445000290870667 0.3246000111103058 0.18209999799728394 -0.9361000061035156 0.30090001225471497
          0.2867000102996826 -0.9210000038146973 0.2635999917984009 0.43140000104904175 -0.892799973487854 0.12960000336170197
          -0.9962999820709229 -0.08550000190734863 0.0071000000461936 0.24969999492168427 -0.9595000147819519 0.13079999387264252
          -0.009600000455975533 -0.9764999747276306 0.21539999544620514 -0.054499998688697815 -0.9706000089645386 0.23440000414848328
          -0.08540000021457672 -0.968500018119812 0.2337999939918518 -0.09480000287294388 -0.9695000052452087 0.22589999437332153
          -0.09969999641180038 -0.9708999991416931 0.21780000627040863 -0.09589999914169312 -0.9704999923706055 0.22100000083446503
          -0.06700000166893005 -0.9739000201225281 0.21690000593662262 -0.0015999999595806003 -0.9751999974250793 0.2214999943971634
          0.2768999934196472 -0.9366000294685364 0.21449999511241913 0.23319999873638153 -0.9474999904632568 0.21870000660419464
          -0.9954000115394592 -0.08309999853372574 -0.046799998730421066 0.03959999978542328 -0.98089998960495 0.19059999287128448
          -0.01080000028014183 -0.982699990272522 0.18479999899864197 -0.031599998474121094 -0.9853000044822693 0.1680999994277954
          -0.038600001484155655 -0.9872999787330627 0.15410000085830688 -0.04439999908208847 -0.9886999726295471 0.14300000667572021
          -0.051600001752376556 -0.9900000095367432 0.1316000074148178 -0.041600000113248825 -0.9905999898910522 0.1306000053882599
          0.0026000000070780516 -0.989300012588501 0.1459999978542328 0.25780001282691956 -0.9634000062942505 0.07360000163316727
          0.4546999931335449 -0.8896999955177307 0.04129999876022339 -0.9854000210762024 -0.12359999865293503 -0.1168999969959259
          0.06350000202655792 -0.9824000000953674 0.17560000717639923 0.02590000070631504 -0.9847999811172485 0.17159999907016754
          0.027699999511241913 -0.9873999953269958 0.15569999814033508 0.055799998342990875 -0.9941999912261963 0.09229999780654907
          0.028699999675154686 -0.9993000030517578 0.024000000208616257 0.01549999974668026 -0.9984999895095825 0.05220000073313713
          0.022600000724196434 -0.9994000196456909 0.027000000700354576 0.03539999946951866 -0.9993000030517578 0.014700000174343586
          0.22380000352859497 -0.9745000004768372 -0.017000000923871994 0.46000000834465027 -0.8851000070571899 -0.07079999893903732
          0.47049999237060547 -0.8813999891281128 -0.04280000180006027 -0.9509000182151794 -0.2176000028848648 -0.2198999971151352
          0.06930000334978104 -0.9692999720573425 0.23579999804496765 0.05079999938607216 -0.9822999835014343 0.1800999939441681
          0.08429999649524689 -0.9861999750137329 0.14249999821186066 0.24979999661445618 -0.9681000113487244 0.019099999219179153
          0.41679999232292175 -0.8101999759674072 -0.412200003862381 0.09799999743700027 -0.9865999817848206 -0.13040000200271606
          0.2011999934911728 -0.9598000049591064 -0.1956000030040741 0.2583000063896179 -0.9498000144958496 -0.17640000581741333
          0.46480000019073486 -0.8690999746322632 -0.16910000145435333 -0.9092000126838684 -0.2303999960422516 -0.34689998626708984
          0.05050000175833702 -0.9782000184059143 0.20149999856948853 0.05380000174045563 -0.97079998254776 0.23360000550746918
          0.09730000048875809 -0.9666000008583069 0.23690000176429749 0.2793999910354614 -0.9480000138282776 0.1526000052690506
          0.7659000158309937 -0.6335999965667725 -0.1096000000834465 0.7218000292778015 -0.5453000068664551 -0.4262000024318695
          0.382099986076355 -0.6503999829292297 -0.656499981880188 0.40049999952316284 -0.5285000205039978 -0.7486000061035156
          0.41339999437332153 -0.6940000057220459 -0.5893999934196472 -0.8533999919891357 -0.18629999458789825 -0.4867999851703644
          0.21320000290870667 -0.974399983882904 0.0706000030040741 -0.008299999870359898 -0.9836000204086304 0.18029999732971191
          -0.006200000178068876 -0.9735999703407288 0.2280000001192093 0.02319999970495701 -0.9653000235557556 0.26019999384880066
          0.09910000115633011 -0.9441999793052673 0.3140999972820282 0.3871999979019165 -0.840499997138977 0.3790000081062317
          0.8794000148773193 -0.3693999946117401 0.3003999888896942 -0.7253999710083008 -0.12030000239610672 -0.6776999831199646
          0.22470000386238098 -0.9678000211715698 0.1136000007390976 -0.050999999046325684 -0.988099992275238 0.14509999752044678
          -0.06920000165700912 -0.9786999821662903 0.1931000053882599 -0.0502999983727932 -0.968999981880188 0.241799995303154
          0.0038999998942017555 -0.9574000239372253 0.28870001435279846 0.35420000553131104 -0.815500020980835 0.4577000141143799
          0.7019000053405762 -0.3174000084400177 0.6376000046730042 -0.48240000009536743 -0.374099999666214 -0.7921000123023987
          0.08399999886751175 -0.9904999732971191 0.10849999636411667 -0.10329999774694443 -0.9855999946594238 0.1339000016450882
          -0.11289999634027481 -0.9767000079154968 0.18250000476837158 -0.0746999979019165 -0.9695000052452087 0.23319999873638153
          -0.022700000554323196 -0.9574000239372253 0.28790000081062317 0.05480000004172325 -0.9347000122070312 0.3513000011444092
          0.23919999599456787 -0.8396000266075134 0.4875999987125397 -0.23690000176429749 -0.9541000127792358 -0.18320000171661377
          -0.5985999703407288 -0.5633000135421753 -0.569599986076355 -0.16439999639987946 -0.982699990272522 0.0851999968290329
          -0.1388999968767166 -0.9779999852180481 0.15559999644756317 -0.09600000083446503 -0.972599983215332 0.2117999941110611
          -0.04859999939799309 -0.9625999927520752 0.266400009393692 0.01549999974668026 -0.9415000081062317 0.3366999924182892
          0.15360000729560852 -0.8704000115394592 0.4677000045776367 0.5148000121116638 -0.44510000944137573 0.7328000068664551
          -0.40299999713897705 -0.8949999809265137 -0.19140000641345978 -0.6406000256538391 -0.48910000920295715 -0.5918999910354614
          -0.22259999811649323 -0.9743000268936157 0.03550000116229057 -0.16760000586509705 -0.9781000018119812 0.12380000203847885
          -0.11550000309944153 -0.9753000140190125 0.18809999525547028 -0.06769999861717224 -0.9689000248908997 0.23810000717639923
          0.0031999999191612005 -0.9580000042915344 0.2867000102996826 0.09220000356435776 -0.9352999925613403 0.34150001406669617
          0.4921000003814697 -0.5194000005722046 0.6987000107765198 0.35010001063346863 -0.8449000120162964 0.4043999910354614
          0.5896000266075134 -0.525600016117096 0.6133000254631042 -0.5546000003814697 -0.7239999771118164 -0.4101000130176544
          -0.2791000008583069 -0.9603000283241272 -0.006500000134110451 -0.19580000638961792 -0.9763000011444092 0.09179999679327011
          -0.13369999825954437 -0.9775999784469604 0.16259999573230743 -0.05480000004172325 -0.9771999716758728 0.20499999821186066
          0.03139999881386757 -0.9735000133514404 0.2264000028371811 0.290800005197525 -0.9387999773025513 0.18469999730587006
          0.5016000270843506 -0.8568000197410583 0.11990000307559967 0.5819000005722046 -0.7533000111579895 0.30649998784065247
          -0.3440000116825104 -0.9366000294685364 -0.06689999997615814 -0.6183000206947327 -0.5986999869346619 -0.5091000199317932
          -0.21940000355243683 -0.9735000133514404 0.06419999897480011 -0.1363999992609024 -0.982200026512146 0.12939999997615814
          -0.026599999517202377 -0.9825999736785889 0.18400000035762787 0.27309998869895935 -0.953000009059906 0.1315000057220459
          0.47269999980926514 -0.8794000148773193 0.056299999356269836 0.5048999786376953 -0.859499990940094 0.07970000058412552
          -0.4058000147342682 -0.8809000253677368 -0.243599995970726 -0.6118999719619751 -0.521399974822998 -0.5946999788284302
          -0.23669999837875366 -0.9710999727249146 0.030400000512599945 -0.12470000237226486 -0.9851999878883362 0.11720000207424164
          0.15160000324249268 -0.974399983882904 0.16599999368190765 0.44780001044273376 -0.8783000111579895 0.16760000586509705
          0.35089999437332153 -0.9217000007629395 0.16539999842643738 -0.6180999875068665 -0.6202999949455261 -0.4828000068664551
          -0.31690001487731934 -0.9452000260353088 -0.07919999957084656 -0.1307000070810318 -0.9902999997138977 0.0471000000834465
          0.22089999914169312 -0.9713000059127808 0.08860000222921371 0.4237000048160553 -0.8848000168800354 0.193900004029274
          -0.30869999527931213 -0.9150000214576721 -0.2597000002861023 -0.478300005197525 -0.478300005197525 -0.7365000247955322
          0.08139999955892563 -0.989300012588501 -0.12120000272989273 0.37549999356269836 -0.9133999943733215 -0.15700000524520874
          0.4625999927520752 -0.8865000009536743 -0.00419999985024333 0.01850000023841858 -0.760699987411499 -0.6488999724388123
          0.2867000102996826 -0.8571000099182129 -0.42809998989105225 -0.7139999866485596 0.14959999918937683 0.6840000152587891
          -0.7651000022888184 0.1597999930381775 0.6237000226974487 -0.5874999761581421 0.1573999971151352 0.7937999963760376
          -0.4668999910354614 0.15620000660419464 0.8704000115394592 -0.4178999960422516 0.08980000019073486 0.9041000008583069
          -0.47290000319480896 0.03310000151395798 0.8805000185966492 -0.5142999887466431 0.01860000006854534 0.8574000000953674
          -0.4982999861240387 -0.005400000140070915 0.8669999837875366 -0.4480000138282776 -0.06120000034570694 0.8920000195503235
          -0.4036000072956085 -0.04690000042319298 0.9136999845504761 -0.23330000042915344 -0.04969999939203262 0.9710999727249146
          -0.030700000002980232 -0.11259999871253967 0.9932000041007996 0.1598999947309494 -0.2313999980688095 0.9595999717712402
          -0.8982999920845032 0.13369999825954437 0.41850000619888306 -0.8294000029563904 0.16050000488758087 0.535099983215332
          0.31679999828338623 -0.8978999853134155 0.30570000410079956 0.18070000410079956 -0.6047000288963318 0.7756999731063843
          -0.9462000131607056 0.0989999994635582 0.30809998512268066 -0.989799976348877 0.0421999990940094 0.13590000569820404
          0.04569999873638153 -0.9419999718666077 0.33239999413490295 0.006399999838322401 -0.9014000296592712 0.43299999833106995
          0.0722000002861023 -0.5746999979019165 0.8151999711990356 0.04899999871850014 -0.8485999703407288 0.5267999768257141
          0.24580000340938568 -0.5666999816894531 0.7864000201225281 0.21559999883174896 -0.2838999927043915 0.9343000054359436
          -0.9993000030517578 0.01730000041425228 -0.03350000083446503 0.013500000350177288 -0.9592000246047974 0.2824999988079071
          -0.03970000147819519 -0.9427000284194946 0.3312999904155731 0.004399999976158142 -0.9122999906539917 0.40959998965263367
          0.06530000269412994 -0.8723999857902527 0.48429998755455017 0.2386000007390976 -0.5070000290870667 0.8282999992370605
          -0.9980000257492065 -0.03280000016093254 -0.05380000174045563 -0.9991000294685364 -0.0019000000320374966 -0.04320000112056732
          0.211899995803833 -0.9758999943733215 0.052000001072883606 -0.05849999934434891 -0.9829000234603882 0.17479999363422394
          -0.06750000268220901 -0.9638000130653381 0.25780001282691956 -0.016699999570846558 -0.9381999969482422 0.3456999957561493
          0.22130000591278076 -0.6758999824523926 0.703000009059906 0.3668000102043152 -0.5450000166893005 0.7538999915122986
          -0.9919000267982483 -0.05510000139474869 -0.11490000039339066 0.29010000824928284 -0.955299973487854 -0.05649999901652336
          -0.005100000184029341 -0.9958999752998352 0.09070000052452087 -0.04010000079870224 -0.9937000274658203 0.10499999672174454
          -0.09049999713897705 -0.9711999893188477 0.22030000388622284 -0.050700001418590546 -0.9577000141143799 0.2831000089645386
          0.010300000198185444 -0.9297999739646912 0.36800000071525574 0.11379999667406082 -0.8669999837875366 0.4851999878883362
          0.39480000734329224 -0.5774999856948853 0.7146000266075134 0.33239999413490295 -0.8428999781608582 0.4230000078678131
          0.6191999912261963 -0.4307999908924103 0.656499981880188 -0.9580000042915344 -0.06639999896287918 -0.2791000008583069
          0.3580999970436096 -0.053300000727176666 -0.932200014591217 0.49709999561309814 -0.02459999918937683 -0.8673999905586243
          0.42089998722076416 -0.10289999842643738 -0.901199996471405 0.30799999833106995 -0.04320000112056732 -0.9503999948501587
          0.413100004196167 -0.878600001335144 -0.23960000276565552 0.006899999920278788 -0.8615999817848206 -0.5074999928474426
          -0.07940000295639038 -0.9968000054359436 -0.0024999999441206455 -0.10660000145435333 -0.9887999892234802 0.10490000247955322
          -0.06279999762773514 -0.9671000242233276 0.24650000035762787 0.012400000356137753 -0.954200029373169 0.298799991607666
          0.10639999806880951 -0.9315999746322632 0.34769999980926514 0.6180999875068665 -0.5440000295639038 0.5673999786376953
          -0.8999000191688538 -0.0754999965429306 -0.4296000003814697 0.9589999914169312 -0.02329999953508377 -0.2824999988079071
          0.8155999779701233 -0.09610000252723694 -0.5705999732017517 0.73089998960495 -0.19769999384880066 -0.6531999707221985
          0.5769000053405762 -0.1039000004529953 -0.8101999759674072 0.24390000104904175 -0.10249999910593033 -0.9643999934196472
          0.260699987411499 -0.5144000053405762 -0.8169999718666077 -0.19059999287128448 -0.5099999904632568 -0.8388000130653381
          -0.20190000534057617 -0.9562000036239624 -0.21199999749660492 -0.15569999814033508 -0.9876000285148621 0.0203000009059906
          -0.1509999930858612 -0.9829000234603882 0.1054999977350235 -0.1251000016927719 -0.9781000018119812 0.16619999706745148
          -0.06340000033378601 -0.9771000146865845 0.2029999941587448 0.03519999980926514 -0.9718000292778015 0.23330000042915344
          0.3037000000476837 -0.9311000108718872 0.20200000703334808 0.5059999823570251 -0.8507000207901001 0.14239999651908875
          0.5644999742507935 -0.7756999731063843 0.28220000863075256 -0.8220999836921692 -0.08619999885559082 -0.5626999735832214
          0.9848999977111816 0.0812000036239624 0.15279999375343323 -0.30559998750686646 -0.6509000062942505 -0.6949999928474426
          -0.37599998712539673 -0.45890000462532043 -0.8050000071525574 -0.26510000228881836 -0.9361000061035156 -0.23100000619888306
          -0.19499999284744263 -0.9807999730110168 0.002899999963119626 -0.1404999941587448 -0.9832000136375427 0.11699999868869781
          -0.04230000078678131 -0.9835000038146973 0.17599999904632568 0.26460000872612 -0.9549999833106995 0.1339000016450882
          0.5031999945640564 -0.862500011920929 0.05389999970793724 0.5375000238418579 -0.839900016784668 0.07569999992847443
          -0.711899995803833 -0.12049999833106995 -0.6917999982833862 0.867900013923645 0.1720000058412552 0.4659000039100647
          0.9229999780654907 0.1387999951839447 0.35899999737739563 0.8087999820709229 0.1088000014424324 0.5778999924659729
          -0.3935000002384186 -0.6017000079154968 -0.6951000094413757 -0.49149999022483826 -0.8062000274658203 -0.32919999957084656
          -0.17710000276565552 -0.980400025844574 0.08669999986886978 0.1363999992609024 -0.9768999814987183 0.1647000014781952
          0.4505000114440918 -0.8783000111579895 0.1598999947309494 0.4966000020503998 -0.8651000261306763 0.07039999961853027
          -0.6707000136375427 -0.17059999704360962 -0.7218000292778015 0.7135999798774719 0.15760000050067902 0.6826000213623047
          0.6460999846458435 0.09669999778270721 0.757099986076355 -0.7371000051498413 -0.5928000211715698 -0.3244999945163727
          -0.3702999949455261 -0.9284999966621399 0.02850000001490116 -0.20110000669956207 -0.9739000201225281 0.10499999672174454
          0.1988999992609024 -0.9714000225067139 0.1298999935388565 0.4147999882698059 -0.8837000131607056 0.21699999272823334
          -0.6899999976158142 -0.1768999993801117 -0.7019000053405762 0.5902000069618225 -0.024000000208616257 0.8069000244140625
          -0.40059998631477356 -0.9161999821662903 -0.005400000140070915 -0.7660999894142151 -0.5706999897956848 -0.2957000136375427
          0.06289999932050705 -0.9969000220298767 0.04729999974370003 0.385699987411499 -0.9225999712944031 -0.0071000000461936
          0.4334999918937683 -0.8992999792098999 0.05820000171661377 -0.6574000120162964 -0.1404999941587448 -0.7404000163078308
          0.47940000891685486 -0.07850000262260437 0.8741000294685364 -0.21940000355243683 -0.9666000008583069 -0.13210000097751617
          -0.6407999992370605 -0.6789000034332275 -0.35850000381469727 0.27639999985694885 -0.9578999876976013 -0.07769999653100967
          0.38580000400543213 -0.9222999811172485 -0.021900000050663948 -0.6647999882698059 -0.21199999749660492 -0.7163000106811523
          0.3824000060558319 -0.8779000043869019 0.2883000075817108 0.39320001006126404 -0.47620001435279846 0.7865999937057495
          0.15839999914169312 -0.781499981880188 0.6035000085830688 0.2565999925136566 -0.2939999997615814 0.9207000136375427
          0.05730000138282776 -0.9659000039100647 -0.2526000142097473 -0.6730999946594238 -0.164000004529953 -0.7210999727249146
          0.26159998774528503 -0.9470999836921692 0.18610000610351562 0.038100000470876694 -0.9502999782562256 0.3091000020503998
          0.04010000079870224 -0.9041000008583069 0.4253000020980835 0.07850000262260437 -0.7574999928474426 0.6481000185012817
          0.20550000667572021 -0.30709999799728394 0.9291999936103821 -0.6521000266075134 -0.1412000060081482 -0.7447999715805054
          0.020600000396370888 -0.974399983882904 0.22380000352859497 -0.02889999933540821 -0.9603000283241272 0.2775999903678894
          -0.030400000512599945 -0.9361000061035156 0.35040000081062317 -0.009200000204145908 -0.8981999754905701 0.43939998745918274
          0.03240000084042549 -0.7361000180244446 0.6761000156402588 0.09629999846220016 -0.17739999294281006 0.9793999791145325
          -0.10109999775886536 -0.9440000057220459 0.3140999972820282 -0.6207000017166138 -0.3411000072956085 0.7059000134468079
          -0.6776000261306763 -0.7098000049591064 -0.19280000030994415 0.0034000000450760126 -0.6789000034332275 0.7342000007629395
          -0.6791999936103821 -0.17000000178813934 -0.7139999866485596 -0.652899980545044 -0.1509999930858612 -0.7422000169754028
          0.19869999587535858 -0.9682000279426575 0.15199999511241913 -0.07919999957084656 -0.9703999757766724 0.22830000519752502
          -0.062199998646974564 -0.9556000232696533 0.28790000081062317 -0.04050000011920929 -0.9348000288009644 0.35280001163482666
          -0.051600001752376556 -0.9083999991416931 0.414900004863739 -0.10369999706745148 -0.36390000581741333 0.9257000088691711
          -0.10760000348091125 -0.8179000020027161 0.5651999711990356 -0.18490000069141388 -0.8266000151634216 0.5315999984741211
          -0.3424000144004822 -0.4140999913215637 0.8434000015258789 0.13279999792575836 -0.9308000206947327 0.34060001373291016
          -0.15320000052452087 -0.49959999322891235 0.8525999784469604 0.26759999990463257 -0.9629999995231628 0.032999999821186066
          0.2669999897480011 -0.8371999859809875 0.4772000014781952 -0.49540001153945923 -0.16060000658035278 -0.8536999821662903
          0.2134000062942505 -0.9739999771118164 -0.07599999755620956 -0.04610000178217888 -0.9923999905586243 0.11410000175237656
          -0.06880000233650208 -0.9818000197410583 0.17710000276565552 -0.0737999975681305 -0.9638000130653381 0.25600001215934753
          -0.038600001484155655 -0.9506999850273132 0.3075999915599823 0.04699999839067459 -0.9503999948501587 0.3075000047683716
          0.3407999873161316 -0.9290000200271606 0.1444000005722046 0.44519999623298645 -0.8815000057220459 0.1573999971151352
          -0.20730000734329224 -0.4440999925136566 -0.8716999888420105 -0.08380000293254852 -0.9021000266075134 -0.42320001125335693
          -0.32249999046325684 -0.4684000015258789 -0.8224999904632568 -0.10819999873638153 -0.9925000071525574 -0.057100001722574234
          -0.09549999982118607 -0.9947999715805054 0.03579999879002571 -0.10379999876022339 -0.9887999892234802 0.10719999670982361
          -0.0949999988079071 -0.9815999865531921 0.1656000018119812 -0.08290000259876251 -0.9753999710083008 0.2045000046491623
          -0.045099999755620956 -0.9632999897003174 0.2644999921321869 0.1728000044822693 -0.9433000087738037 0.2833000123500824
          -0.30570000410079956 -0.5623000264167786 -0.7684000134468079 -0.22010000050067902 -0.9465000033378601 -0.2362000048160553
          -0.12129999697208405 -0.9919000267982483 -0.03830000013113022 -0.11089999973773956 -0.9937999844551086 0
          -0.09939999878406525 -0.9921000003814697 0.07689999788999557 -0.08250000327825546 -0.9882000088691711 0.1290999948978424
          -0.04270000010728836 -0.984499990940094 0.17020000517368317 0.03229999914765358 -0.974399983882904 0.2223999947309494
          0.335099995136261 -0.925599992275238 0.17579999566078186 0.23589999973773956 -0.9531999826431274 0.1889999955892563
          -0.27970001101493835 -0.619700014591217 -0.733299970626831 -0.18389999866485596 -0.3628000020980835 -0.9136000275611877
          -0.15530000627040863 -0.8948000073432922 -0.4185999929904938 -0.09700000286102295 -0.8618000149726868 -0.49779999256134033
          -0.10429999977350235 -0.9941999912261963 -0.027699999511241913 -0.06069999933242798 -0.9977999925613403 0.026499999687075615