<?xml version="1.0"?>
<VTKFile type="PolyData" version="0.1" byte_order="LittleEndian" header_type="UInt32" compressor="vtkZLibDataCompressor">
  <PolyData>
    <FieldData>
      <Array type="String" Name="MaterialNames" NumberOfTuples="1" format="ascii">
        109 97 116 101 114 105 97 108 95 48 0
      </Array>
      <Array type="String" Name="MaterialLibraries" NumberOfTuples="1" format="ascii">
        109 97 116 101 114 105 97 108 46 109 116 108 0
      </Array>
    </FieldData>
    <Piece NumberOfPoints="18897" NumberOfVerts="0" NumberOfLines="0" NumberOfStrips="0" NumberOfPolys="38122">
      <PointData Normals="Normals">
        <DataArray type="Float32" Name="Normals" NumberOfComponents="3" format="ascii" RangeMin="0.9999213852592753" RangeMax="1.0000769209519154">
          -0.42980000376701355 0.1550000011920929 0.8895000219345093 -0.49619999527931213 0.11079999804496765 0.8611000180244446
          -0.36239999532699585 0.13030000030994415 0.9229000210762024 0.20800000429153442 0.16619999706745148 0.9639000296592712
          0.3919000029563904 0.11140000075101852 0.9132000207901001 0.1509999930858612 0.14309999346733093 0.9781000018119812
          -0.22679999470710754 -0.13259999454021454 -0.964900016784668 -0.15629999339580536 -0.17759999632835388 -0.9715999960899353
          -0.26489999890327454 -0.1915999948978424 -0.9451000094413757 0.15410000085830688 0.049400001764297485 -0.9868000149726868
          -0.014100000262260437 -0.030899999663233757 -0.9994000196456909 0.3091999888420105 0.0005000000237487257 -0.9509999752044678
          0.18060000240802765 0.9821000099182129 0.054499998688697815 0.3021000027656555 0.934499979019165 -0.18850000202655792
          0.1891999989748001 0.9815000295639038 -0.029600000008940697 -0.5667999982833862 0.367900013923645 0.7371000051498413
          -0.4636000096797943 0.262800008058548 0.8461999893188477 -0.7523999810218811 -0.011099999770522118 0.6585999727249146
          0.9089000225067139 0.012900000438094139 -0.41679999232292175 0.8748999834060669 0.012199999764561653 -0.48420000076293945
          0.9217000007629395 -0.07609999924898148 -0.38029998540878296 -0.9490000009536743 0.05570000037550926 0.31040000915527344
          -0.9829000234603882 -0.05510000139474869 0.17560000717639923 -0.934499979019165 0.1160999983549118 0.33640000224113464
          0.9136999845504761 0.1143999993801117 0.38989999890327454 0.9100000262260437 0.08129999786615372 0.4065999984741211
          0.8907999992370605 0.10840000212192535 0.44130000472068787 -0.824400007724762 0.07450000196695328 -0.5611000061035156
          -0.8382999897003174 0.017100000753998756 -0.5449000000953674 -0.8337000012397766 0.08219999819993973 -0.5461000204086304
          0.9749000072479248 -0.018799999728798866 -0.22200000286102295 0.974399983882904 0.04969999939203262 -0.21930000185966492
          0.9617999792098999 0.023099999874830246 -0.2728999853134155 -0.8927000164985657 0.009399999864399433 0.4505999982357025
          -0.8780999779701233 -0.003599999938160181 0.47850000858306885 -0.9430000185966492 -0.038100000470876694 0.33059999346733093
          -0.9563000202178955 -0.0763000026345253 0.28220000863075256 -0.892799973487854 -0.09780000150203705 0.4397999942302704
          -0.9014999866485596 -0.035599999129772186 0.43140000104904175 0.9958000183105469 0.08330000191926956 -0.03750000149011612
          0.9904000163078308 0.1136000007390976 0.07859999686479568 0.9933000206947327 0.11069999635219574 0.03449999913573265
          0.10760000348091125 -0.3425000011920929 -0.9333000183105469 0.19059999287128448 -0.3472999930381775 -0.9182000160217285
          0.022299999371170998 -0.4212999939918518 -0.9065999984741211 -0.5509999990463257 -0.7196000218391418 -0.42250001430511475
          -0.7627999782562256 -0.5821999907493591 -0.2815000116825104 -0.6541000008583069 -0.7289999723434448 -0.20190000534057617
          -0.3319999873638153 0.31850001215934753 0.8878999948501587 -0.18610000610351562 0.41830000281333923 0.8889999985694885
          -0.38999998569488525 0.3269999921321869 0.86080002784729 0.718999981880188 0.5703999996185303 -0.3971000015735626
          0.6915000081062317 0.7166000008583069 -0.09070000052452087 0.5327000021934509 0.8108000159263611 -0.2425999939441681
          -0.5314000248908997 -0.7731000185012817 0.34610000252723694 -0.7702000141143799 -0.5489000082015991 0.3249000012874603
          -0.8676999807357788 -0.47200000286102295 0.15600000321865082 0.7287999987602234 -0.48980000615119934 -0.47839999198913574
          0.44040000438690186 -0.27300000190734863 -0.8553000092506409 0.7493000030517578 -0.6008999943733215 -0.2782999873161316
          0.8282999992370605 0.5383999943733215 -0.15489999949932098 0.8531000018119812 0.5091000199317932 -0.11389999836683273
          0.7387999892234802 0.574400007724762 -0.35260000824928284 0.11330000311136246 -0.8216999769210815 0.5586000084877014
          0.13459999859333038 -0.6326000094413757 0.7627000212669373 0.2222999930381775 -0.777999997138977 0.5875999927520752
          -0.7448999881744385 -0.19910000264644623 0.6367999911308289 -0.685699999332428 -0.15780000388622284 0.7105000019073486
          -0.6545000076293945 -0.12929999828338623 0.7448999881744385 -0.45890000462532043 0.8047999739646912 0.3765000104904175
          -0.46050000190734863 0.8547000288963318 0.2395000010728836 -0.6367999911308289 0.7272999882698059 0.25589999556541443
          0.19169999659061432 -0.20340000092983246 -0.960099995136261 0.21889999508857727 -0.16590000689029694 -0.9614999890327454
          0.12150000035762787 -0.22380000352859497 -0.9670000076293945 0.2906000018119812 0.21690000593662262 0.9319000244140625
          0.08630000054836273 -0.09749999642372131 0.9915000200271606 0.05590000003576279 0.16660000383853912 0.9843999743461609
          0.9628000259399414 0.0714000016450882 0.2605000138282776 0.8568000197410583 0.11379999667406082 0.503000020980835
          0.710099995136261 0.07909999787807465 0.6995999813079834 0.9375 -0.0142000000923872 -0.34769999980926514
          0.6474000215530396 -0.6189000010490417 -0.4447000026702881 0.9491000175476074 -0.0812000036239624 -0.3043999969959259
          -0.8295000195503235 0.03620000183582306 -0.5572999715805054 -0.8296999931335449 0.0738999992609024 -0.5533000230789185
          -0.71670001745224 0.006800000090152025 -0.6973999738693237 0.6207000017166138 0.27480000257492065 -0.7343000173568726
          0.5497999787330627 0.20839999616146088 -0.808899998664856 0.8939999938011169 0.0017999999690800905 -0.4480000138282776
          -0.8806999921798706 -0.12890000641345978 -0.45579999685287476 -0.8611999750137329 -0.1543000042438507 -0.48429998755455017
          -0.8953999876976013 -0.20329999923706055 -0.3961000144481659 0.9316999912261963 0.20730000734329224 -0.29820001125335693
          0.9937000274658203 0.032499998807907104 -0.10719999670982361 0.8282999992370605 0.00039999998989515007 -0.5602999925613403
          -0.335099995136261 0.08730000257492065 0.9380999803543091 -0.3718000054359436 0.19589999318122864 0.9074000120162964
          -0.30640000104904175 0.014399999752640724 0.9517999887466431 -0.3050000071525574 0.0892999991774559 -0.9480999708175659
          -0.39089998602867126 0.05040000006556511 -0.9190000295639038 -0.20160000026226044 0.08640000224113464 -0.975600004196167
          0.40299999713897705 -0.016499999910593033 -0.9150000214576721 0.2881999909877777 -0.014299999922513962 -0.9574999809265137
          0.373199999332428 0.019500000402331352 -0.9276000261306763 0.45010000467300415 -0.014700000174343586 0.8928999900817871
          0.32499998807907104 -0.03620000183582306 0.9449999928474426 0.41600000858306885 0.0027000000700354576 0.9093999862670898
          0.9904000163078308 0.0052999998442828655 0.13779999315738678 0.9769999980926514 0.062199998646974564 0.20399999618530273
          0.9889000058174133 0.07000000029802322 0.13089999556541443 0.5260000228881836 -0.14730000495910645 -0.8375999927520752
          0.4269999861717224 -0.15109999477863312 -0.8914999961853027 0.3894999921321869 -0.1281999945640564 -0.9120000004768372
          0.22269999980926514 0.03849999979138374 -0.9740999937057495 0.06379999965429306 0.056699998676776886 -0.996399998664856
          -0.08309999853372574 -0.30790001153945923 -0.9477999806404114 0.4442000091075897 0.35920000076293945 0.8206999897956848
          0.09130000323057175 0.44830000400543213 0.88919997215271 0.545799970626831 0.492000013589859 0.6783000230789185
          0.19769999384880066 0.6288999915122986 -0.7519999742507935 0.0414000004529953 0.5728999972343445 -0.8185999989509583
          0.38420000672340393 0.3797000050544739 -0.8414999842643738 -0.946399986743927 -0.3057999908924103 0.10419999808073044
          -0.6083999872207642 -0.6811000108718872 -0.4074999988079071 -0.8920999765396118 -0.024800000712275505 -0.4510999917984009
          -0.7598999738693237 -0.4690999984741211 0.4499000012874603 -0.08709999918937683 -0.5806000232696533 0.809499979019165
          -0.5216000080108643 -0.28870001435279846 0.8029000163078308 -0.8389999866485596 0.5393000245094299 0.07209999859333038
          -0.9128000140190125 0.39730000495910645 0.09440000355243683 -0.868399977684021 0.4781999886035919 0.13109999895095825
          -0.6524999737739563 -0.2903999984264374 0.699999988079071 -0.6376000046730042 0.060499999672174454 0.7678999900817871
          -0.05480000004172325 -0.0617000013589859 0.9965999722480774 0.6193000078201294 -0.5532000064849854 -0.557200014591217
          0.3296999931335449 -0.5127000212669373 -0.7928000092506409 0.6937999725341797 -0.5683000087738037 -0.4422999918460846
          0.6021999716758728 0.1315000057220459 0.7874000072479248 0.6234999895095825 0.17000000178813934 0.7631000280380249
          0.48840001225471497 0.16519999504089355 0.8568000197410583 -0.954800009727478 -0.1370999962091446 -0.2639000117778778
          -0.9564999938011169 -0.120899997651577 -0.265500009059906 -0.919700026512146 -0.09440000355243683 -0.38100001215934753
          0.07440000027418137 0.18299999833106995 -0.9803000092506409 0.02070000022649765 0.2915000021457672 -0.9563999772071838
          0.1509999930858612 0.4147000014781952 -0.8973000049591064 -0.8526999950408936 -0.015599999576807022 -0.5221999883651733
          -0.6807000041007996 -0.056299999356269836 -0.730400025844574 -0.724399983882904 -0.05770000070333481 -0.6869000196456909
          -0.8188999891281128 -0.573199987411499 -0.02879999950528145 -0.916100025177002 -0.40070000290870667 -0.013899999670684338
          -0.8903999924659729 -0.3700999915599823 0.2651999890804291 0.8248000144958496 0.48809999227523804 0.2854999899864197
          0.8762999773025513 0.22349999845027924 0.42669999599456787 0.8034999966621399 0.4343999922275543 0.40709999203681946
          0.3885999917984009 0.0731000006198883 0.9185000061988831 0.2757999897003174 0.07360000163316727 0.9584000110626221
          0.44339999556541443 0.07599999755620956 0.8931000232696533 -0.24079999327659607 -0.9502000212669373 -0.19789999723434448
          -0.27799999713897705 -0.9057000279426575 -0.3199000060558319 -0.3873000144958496 -0.8303999900817871 -0.40059998631477356
          -0.1800999939441681 0.1785999983549118 -0.9672999978065491 -0.21230000257492065 0.11980000138282776 -0.9697999954223633
          -0.029899999499320984 0.26249998807907104 -0.9645000100135803 0.4494999945163727 0.07339999824762344 -0.8902999758720398
          0.44359999895095825 0.039900001138448715 -0.8952999711036682 0.3930000066757202 0.11569999903440475 -0.9121999740600586
          -0.9430999755859375 -0.3172000050544739 -0.09960000216960907 -0.9495999813079834 -0.3118000030517578 0.03310000151395798
          -0.9416000247001648 -0.33390000462532043 0.04280000180006027 -0.065700002014637 -0.21080000698566437 -0.9753000140190125
          -0.02449999935925007 -0.20469999313354492 -0.9785000085830688 -0.15049999952316284 -0.22859999537467957 -0.9617999792098999
          -0.9990000128746033 -0.018300000578165054 -0.03999999910593033 -0.9925000071525574 -0.032499998807907104 -0.11779999732971191
          -0.9926999807357788 0.007400000002235174 -0.12039999663829803 0.9312000274658203 0.0035000001080334187 -0.3643999993801117
          0.9168000221252441 -0.09939999878406525 -0.38679999113082886 0.9009000062942505 0.09889999777078629 -0.42250001430511475
          -0.32100000977516174 0.17900000512599945 0.9300000071525574 -0.2994000017642975 0.16200000047683716 0.9402999877929688
          -0.29319998621940613 0.17139999568462372 0.9405999779701233 -0.29679998755455017 0.1923999935388565 0.9354000091552734
          -0.3043999969959259 0.1800999939441681 0.9354000091552734 -0.8637999892234802 -0.4447000026702881 0.23669999837875366
          -0.7439000010490417 -0.5892000198364258 -0.31540000438690186 0.6699000000953674 0.6718999743461609 -0.3158999979496002
          0.5016000270843506 0.781000018119812 -0.3720000088214874 0.489300012588501 0.8149999976158142 -0.31040000915527344
          -0.20720000565052032 0.7141000032424927 -0.6686000227928162 -0.058400001376867294 0.7556999921798706 -0.652400016784668
          0.6243000030517578 -0.7694000005722046 -0.1348000019788742 0.8903999924659729 -0.45419999957084656 -0.02979999966919422
          0.9301000237464905 -0.17190000414848328 -0.3246999979019165 0.15479999780654907 -0.9835000038146973 0.09399999678134918
          0.3707999885082245 -0.7615000009536743 0.5315999984741211 0.595300018787384 -0.6211000084877014 0.5098000168800354
          0.3100999891757965 -0.11940000206232071 -0.9431999921798706 0.29739999771118164 -0.09910000115633011 -0.9495999813079834
          0.20270000398159027 -0.0925000011920929 -0.9749000072479248 0.34779998660087585 -0.03790000081062317 0.9368000030517578
          0.3864000141620636 -0.04450000077486038 0.9211999773979187 0.8636999726295471 0.04410000145435333 0.5019999742507935
          0.871999979019165 0.06849999725818634 0.4846000075340271 0.7791000008583069 0.08560000360012054 0.6209999918937683
          0.7957000136375427 -0.017100000753998756 -0.605400025844574 0.8560000061988831 -0.08160000294446945 -0.5105000138282776
          0.8417999744415283 -0.061500001698732376 -0.536300003528595 0.9431999921798706 -0.044199999421834946 0.3294000029563904
          0.7462999820709229 0.24279999732971191 0.619700014591217 0.8192999958992004 0.24480000138282776 0.5184999704360962
          -0.5813000202178955 0.24779999256134033 -0.7749999761581421 -0.5453000068664551 0.14800000190734863 -0.8251000046730042
          -0.6414999961853027 0.1378999948501587 -0.7547000050544739 0.8050000071525574 0.450300008058548 0.3862999975681305
          0.7954000234603882 0.5199000239372253 0.311599999666214 0.7573999762535095 0.47269999980926514 0.450300008058548
          -0.7901999950408936 -0.2784000039100647 -0.5458999872207642 -0.8447999954223633 -0.0754999965429306 -0.529699981212616
          -0.6561999917030334 0.2863999903202057 -0.6980999708175659 -0.6345999836921692 -0.5206000208854675 -0.5712000131607056
          -0.6261000037193298 -0.5554999709129333 -0.5472000241279602 -0.5885000228881836 -0.4681999981403351 -0.6592000126838684
          0.14259999990463257 -0.8779000043869019 0.4569999873638153 0.2125999927520752 -0.9739999771118164 0.07859999686479568
          0.28619998693466187 -0.8899000287055969 0.35519999265670776 0.4140999913215637 -0.28790000081062317 -0.8634999990463257
          0.5095999836921692 -0.25189998745918274 -0.822700023651123 0.6266999840736389 -0.3529999852180481 -0.6947000026702881
          -0.7734000086784363 0.21400000154972076 0.5967000126838684 -0.8651999831199646 0.22619999945163727 0.4474000036716461
          -0.8614000082015991 0.1712999939918518 0.4781000018119812 0.6459000110626221 -0.1898999959230423 -0.7394000291824341
          0.7699000239372253 -0.19280000030994415 -0.608299970626831 0.756600022315979 -0.1941000074148178 -0.6244000196456909
          -0.17270000278949738 0.6223999857902527 -0.7634000182151794 -0.19990000128746033 0.38499999046325684 -0.9010000228881836
          0.3774000108242035 0.047200001776218414 -0.9248999953269958 0.5332000255584717 0.19629999995231628 -0.8228999972343445
          0.8319000005722046 0.4320000112056732 -0.3483000099658966 0.2354000061750412 0.4693000018596649 -0.8511000275611877
          0.5406000018119812 0.7088000178337097 0.45320001244544983 0.599399983882904 0.6521000266075134 0.4641999900341034
          0.4984000027179718 0.6442999839782715 0.5800999999046326 -0.5663999915122986 -0.5088000297546387 -0.6482999920845032
          -0.44429999589920044 -0.42980000376701355 -0.7860999703407288 -0.48190000653266907 -0.4542999863624573 -0.7493000030517578
          -0.14270000159740448 -0.3034999966621399 -0.9420999884605408 -0.2434999942779541 -0.30250000953674316 -0.921500027179718
          -0.28999999165534973 -0.28610000014305115 -0.9132999777793884 0.9498000144958496 -0.006500000134110451 0.31290000677108765
          0.9966999888420105 0.03999999910593033 0.06989999860525131 0.8690999746322632 0.021299999207258224 0.4943000078201294
          0.38600000739097595 0.20730000734329224 0.8988999724388123 0.125900000333786 0.15230000019073486 0.9803000092506409
          0.23070000112056732 0.11999999731779099 0.9656000137329102 -0.9373000264167786 -0.02290000021457672 0.34790000319480896
          -0.9297000169754028 -0.09740000218153 0.35530000925064087 -0.939300000667572 0.017799999564886093 0.3425000011920929
          -0.7465000152587891 -0.1031000018119812 -0.6574000120162964 -0.6101999878883362 -0.093299999833107 -0.7868000268936157
          -0.6764000058174133 0.049800001084804535 -0.7348999977111816 -0.7578999996185303 -0.1662999987602234 -0.6308000087738037
          -0.8422999978065491 -0.12030000239610672 -0.5254999995231628 -0.7296000123023987 -0.12620000541210175 -0.6721000075340271
          0.8485000133514404 -0.045899998396635056 -0.5271999835968018 0.8938000202178955 0.12449999898672104 -0.4309000074863434
          0.8971999883651733 -0.02850000001490116 -0.4408000111579895 0.8889999985694885 0.050999999046325684 -0.45509999990463257
          0.8458999991416931 0.03799999877810478 -0.5320000052452087 0.9523000121116638 0.04670000076293945 -0.30149999260902405
          -0.38589999079704285 -0.16009999811649323 0.9085000157356262 -0.3357999920845032 -0.13699999451637268 0.9319000244140625
          -0.42590001225471497 -0.226500004529953 0.8759999871253967 0.18870000541210175 -0.0714000016450882 0.9793999791145325
          -0.03959999978542328 -0.09160000085830688 0.9950000047683716 0.10869999974966049 -0.09019999951124191 0.9900000095367432
          -0.2791000008583069 -0.8930000066757202 -0.3529999852180481 -0.0013000000035390258 -0.9589999914169312 -0.28349998593330383
          0.2928999960422516 -0.8996000289916992 -0.3237999975681305 0.3467999994754791 -0.8938000202178955 0.28450000286102295
          0.1054999977350235 -0.9718000292778015 0.21089999377727509 0.1143999993801117 -0.890500009059906 0.44029998779296875
          -0.883899986743927 0.2249000072479248 0.4099999964237213 -0.9911999702453613 0.12999999523162842 0.025699999183416367
          -0.7127000093460083 0.6988000273704529 0.061000000685453415 0.5192999839782715 -0.44690001010894775 -0.7283999919891357
          0.3785000145435333 -0.652999997138977 -0.6559000015258789 0.21570000052452087 -0.3725999891757965 -0.9025999903678894
          0.10970000177621841 -0.9940000176429749 0.004399999976158142 0.6122000217437744 -0.7893999814987183 0.04560000076889992
          -0.12939999997615814 -0.9097999930381775 -0.3944000005722046 0.8866000175476074 0.1754000037908554 0.42809998989105225
          0.7671999931335449 0.1574999988079071 0.6218000054359436 0.743399977684021 0.15539999306201935 0.650600016117096
          -0.41100001335144043 0.7766000032424927 0.47749999165534973 0.5788999795913696 0.6398000121116638 0.5055000185966492
          0.12800000607967377 -0.17489999532699585 0.9761999845504761 -0.8388000130653381 0.16210000216960907 0.5196999907493591
          0.8270000219345093 0.1046999990940094 0.5523999929428101 0.5116999745368958 -0.8188999891281128 0.25999999046325684
          0.31299999356269836 -0.8546000123023987 -0.41440001130104065 0.2973000109195709 -0.8895999789237976 -0.3467000126838684
          0.265500009059906 -0.9639999866485596 -0.012600000016391277 0.7681999802589417 -0.32420000433921814 -0.5521000027656555
          0.49889999628067017 -0.8582000136375427 0.12070000171661377 0.29499998688697815 -0.08269999921321869 -0.9519000053405762
          0.5465999841690063 -0.32179999351501465 -0.7731000185012817 0.36149999499320984 0.07400000095367432 -0.9294000267982483
          0.902899980545044 0.16619999706745148 -0.39649999141693115 0.879800021648407 0.47429999709129333 0.03319999948143959
          0.8104000091552734 0.11919999867677689 -0.5735999941825867 0.26510000228881836 -0.8932999968528748 0.3630000054836273
          0.03689999878406525 -0.8377000093460083 -0.5449000000953674 -0.4203999936580658 -0.9017000198364258 0.10050000250339508
          -0.07720000296831131 -0.24819999933242798 -0.9656000137329102 -0.3978999853134155 0.5827000141143799 -0.7085999846458435
          -0.4528999924659729 -0.6456999778747559 -0.614799976348877 -0.9908000230789185 0.13339999318122864 0.0203000009059906
          -0.7213000059127808 -0.046799998730421066 -0.691100001335144 -0.9797999858856201 0.062300000339746475 0.19020000100135803
          0.7696999907493591 0.31049999594688416 0.5579000115394592 0.6388000249862671 0.1873999983072281 0.7462000250816345
          0.8126000165939331 0.4336000084877014 0.38940000534057617 0.4359000027179718 0.12520000338554382 0.8913000226020813
          0.4214000105857849 0.12929999828338623 0.897599995136261 0.009100000374019146 0.16380000114440918 0.9864000082015991
          -0.9764000177383423 -0.041999999433755875 0.21199999749660492 -0.9902999997138977 -0.1185000017285347 -0.0731000006198883
          -0.9944000244140625 -0.05290000140666962 -0.0917000025510788 -0.02459999918937683 -0.9997000098228455 -0.005100000184029341
          -0.10520000010728836 -0.9872000217437744 -0.11999999731779099 -0.1655000001192093 -0.9729999899864197 -0.16099999845027924
          0.20000000298023224 -0.9593999981880188 -0.19869999587535858 0.19259999692440033 -0.967199981212616 -0.16539999842643738
          -0.043800000101327896 -0.9979000091552734 -0.04699999839067459 -0.24210000038146973 -0.9388999938964844 0.24459999799728394
          -0.37290000915527344 -0.7523999810218811 -0.5429999828338623 -0.9538999795913696 -0.10119999945163727 -0.2824000120162964
          0.25600001215934753 -0.6855000257492065 0.6815999746322632 -0.3061999976634979 -0.8557999730110168 0.4169999957084656
          -0.1729000061750412 -0.6288999915122986 0.7580999732017517 0.5978999733924866 -0.7434999942779541 -0.2996000051498413
          0.6007000207901001 -0.491100013256073 -0.6309000253677368 0.8593999743461609 -0.5110999941825867 -0.016200000420212746
          0.7415000200271606 -0.6349999904632568 -0.21660000085830688 0.7404999732971191 -0.43939998745918274 0.5085999965667725
          0.7990000247955322 -0.4442000091075897 -0.40529999136924744 0.7771999835968018 -0.3917999863624573 -0.49239999055862427
          0.8245999813079834 -0.3734999895095825 -0.42480000853538513 -0.2709999978542328 0.8669000267982483 -0.41830000281333923
          -0.3946000039577484 0.7013999819755554 -0.5935999751091003 -0.7480999827384949 0.579200029373169 -0.3237999975681305
          -0.734499990940094 0.3935999870300293 -0.5527999997138977 -0.6539999842643738 0.5266000032424927 -0.5429999828338623
          -0.569599986076355 0.4327000081539154 -0.6988000273704529 -0.31459999084472656 0.9347000122070312 -0.16519999504089355
          -0.21610000729560852 0.9660999774932861 -0.1412999927997589 -0.43650001287460327 0.8970999717712402 -0.06859999895095825
          0.5835000276565552 -0.5383999943733215 0.6079999804496765 0.9125999808311462 -0.40790000557899475 -0.02800000086426735
          0.6499000191688538 -0.7020999789237976 0.29100000858306885 0.3391000032424927 0.006899999920278788 0.9406999945640564
          0.517300009727478 -0.05730000138282776 0.8539000153541565 0.4948999881744385 0.28459998965263367 0.8209999799728394
          -0.7441999912261963 -0.3840000033378601 0.546500027179718 -0.7961999773979187 -0.5257999897003174 0.29919999837875366
          -0.9217000007629395 -0.38499999046325684 -0.0471000000834465 0.3968000113964081 0.777899980545044 -0.48730000853538513
          0.6504999995231628 0.3723999857902527 -0.6620000004768372 0.6671000123023987 0.5680000185966492 -0.48190000653266907
          0.352400004863739 0.04670000076293945 -0.9347000122070312 0.32269999384880066 0.12240000069141388 -0.9386000037193298
          0.30160000920295715 0.1151999980211258 -0.9465000033378601 -0.22360000014305115 0.006099999882280827 0.9746999740600586
          -0.3659000098705292 -0.17030000686645508 0.914900004863739 -0.22550000250339508 -0.0820000022649765 0.97079998254776
          0.24060000479221344 -0.9293000102043152 0.28029999136924744 0.3456000089645386 -0.9302999973297119 0.12250000238418579
          0.1988999992609024 -0.9796000123023987 0.029100000858306885 0.08060000091791153 0.9941999912261963 -0.07090000063180923
          0.13230000436306 0.9837999939918518 0.12110000103712082 0.21119999885559082 0.9714000225067139 0.10809999704360962
          0.10939999669790268 0.9509000182151794 0.2897000014781952 0.492000013589859 0.7932000160217285 0.3589000105857849
          0.1923000067472458 0.9125000238418579 0.3610999882221222 -0.3693000078201294 -0.9205999970436096 -0.12690000236034393
          -0.33959999680519104 -0.8806999921798706 -0.33009999990463257 -0.266400009393692 -0.9451000094413757 -0.1890999972820282
          0.6033999919891357 0.0017000000225380063 -0.7975000143051147 0.4918999969959259 -0.1014999970793724 -0.8647000193595886
          0.38940000534057617 -0.05420000106096268 -0.9194999933242798 0.436599999666214 -0.14470000565052032 -0.8880000114440918
          0.3255999982357025 -0.04910000041127205 -0.9441999793052673 0.21130000054836273 -0.04569999873638153 -0.9764000177383423
          0.8282999992370605 0.15710000693798065 -0.5376999974250793 0.5672000050544739 -0.05090000107884407 -0.8220000267028809
          0.5618000030517578 -0.14259999990463257 -0.8148999810218811 0.9976000189781189 0.06430000066757202 -0.025499999523162842
          0.9965999722480774 0.017400000244379044 -0.0803999975323677 0.9883000254631042 -0.14419999718666077 0.049400001764297485
          0.7423999905586243 -0.6510000228881836 0.1582999974489212 0.6338000297546387 -0.7440000176429749 -0.21160000562667847
          0.8312000036239624 -0.5062000155448914 0.22990000247955322 0.7752000093460083 -0.21400000154972076 0.5942999720573425
          0.6093999743461609 -0.4101000130176544 0.678600013256073 0.7540000081062317 -0.4499000012874603 0.47850000858306885
          0.7929999828338623 0.6033999919891357 0.08429999649524689 0.19509999454021454 0.5947999954223633 0.7797999978065491
          0.20090000331401825 0.632099986076355 0.7483999729156494 0.13429999351501465 0.7598000168800354 0.6360999941825867
          -0.8652999997138977 -0.3287999927997589 -0.3783999979496002 -0.9225999712944031 -0.3319000005722046 -0.19670000672340393
          -0.9016000032424927 -0.34450000524520874 -0.2615000009536743 -0.7659000158309937 -0.22470000386238098 -0.602400004863739
          -0.8471999764442444 -0.1736000031232834 -0.5020999908447266 -0.7684999704360962 -0.22759999334812164 -0.5979999899864197
          0.19550000131130219 -0.22689999639987946 -0.9541000127792358 0.45719999074935913 -0.003599999938160181 -0.8894000053405762
          0.5637999773025513 0.004100000020116568 -0.8259000182151794 -0.029500000178813934 -0.3767000138759613 -0.9258999824523926
          -0.0640999972820282 -0.06129999831318855 -0.9961000084877014 0.021199999377131462 0.06989999860525131 -0.9973000288009644
          0.12470000237226486 0.014800000004470348 -0.9921000003814697 0.44670000672340393 0.5511999726295471 -0.7046999931335449
          0.8062000274658203 -0.32199999690055847 -0.49639999866485596 0.6963000297546387 0.14339999854564667 -0.7032999992370605
          0.853600025177002 -0.23160000145435333 0.4666000008583069 0.8906000256538391 -0.20569999516010284 0.4056999981403351
          0.8463000059127808 -0.04320000112056732 0.5309000015258789 0.9315999746322632 -0.20029999315738678 0.30329999327659607
          0.8580999970436096 -0.45579999685287476 -0.23639999330043793 0.7820000052452087 -0.21739999949932098 0.5842000246047974
          -0.10769999772310257 -0.9879999756813049 -0.11060000211000443 -0.05310000106692314 -0.9886999726295471 -0.1404000073671341
          -0.2409999966621399 0.1793999969959259 0.9538000226020813 -0.40639999508857727 0.15760000050067902 0.8999999761581421
          -0.2865999937057495 0.120899997651577 0.9503999948501587 -0.3346000015735626 -0.3077999949455261 0.8906999826431274
          -0.41769999265670776 -0.08879999816417694 0.90420001745224 -0.4075999855995178 -0.1606999933719635 0.8988999724388123
          -0.9391000270843506 0.34220001101493835 0.032600000500679016 -0.9010000228881836 0.40689998865127563 0.15029999613761902
          -0.9171000123023987 0.3799999952316284 0.12049999833106995 -0.018799999728798866 0.08309999853372574 0.996399998664856
          0.02370000071823597 0.10580000281333923 0.9940999746322632 -0.14659999310970306 0.09730000048875809 0.9843999743461609
          -0.39320001006126404 0.16050000488758087 0.9053000211715698 -0.3659000098705292 0.21549999713897705 0.9053999781608582
          0.5583999752998352 -0.1809999942779541 0.8095999956130981 0.7245000004768372 -0.3508000075817108 0.5932999849319458