<?xml version="1.0"?>
<VTKFile type="PolyData" version="0.1" byte_order="LittleEndian" header_type="UInt32" compressor="vtkZLibDataCompressor">
  <PolyData>
    <FieldData>
      <Array type="String" Name="MaterialNames" NumberOfTuples="1" format="ascii">
        109 97 116 101 114 105 97 108 95 48 0
      </Array>
      <Array type="String" Name="MaterialLibraries" NumberOfTuples="1" format="ascii">
        109 97 116 101 114 105 97 108 46 109 116 108 0
      </Array>
    </FieldData>
    <Piece NumberOfPoints="11298" NumberOfVerts="0" NumberOfLines="0" NumberOfStrips="0" NumberOfPolys="22831">
      <PointData Normals="Normals">
        <DataArray type="Float32" Name="Normals" NumberOfComponents="3" format="ascii" RangeMin="0.9999195825868705" RangeMax="1.000073210567563">
          0.41260001063346863 -0.8564000129699707 -0.31029999256134033 0.15219999849796295 0.03750000149011612 0.9876000285148621
          0.623199999332428 0.26809999346733093 0.7347000241279602 -0.3855000138282776 0.07029999792575836 -0.9200000166893005
          -0.47780001163482666 0.05480000004172325 -0.876800000667572 -0.8242999911308289 -0.478300005197525 -0.30300000309944153
          0.3188000023365021 -0.1826999932527542 -0.9301000237464905 0.8479999899864197 0.259799987077713 -0.461899995803833
          0.7190999984741211 0.5105000138282776 0.4713999927043915 -0.07620000094175339 0.2939999997615814 0.9527999758720398
          -0.5785999894142151 0.4043999910354614 0.7081999778747559 0.44190001487731934 -0.7875000238418579 -0.4296000003814697
          0.8479999899864197 0.259799987077713 -0.461899995803833 0.7190999984741211 0.5105000138282776 0.4713999927043915
          -0.31949999928474426 -0.8064000010490417 0.4977000057697296 0.8490999937057495 0.5180000066757202 -0.10339999943971634
          0.9840999841690063 -0.1665000021457672 -0.0625 0.9527000188827515 -0.2410999983549118 -0.18520000576972961
          0.9621999859809875 -0.17389999330043793 -0.20970000326633453 0.40869998931884766 0.22460000216960907 -0.8845999836921692
          0.3190999925136566 0.2353000044822693 -0.9180999994277954 0.3675000071525574 0.33379998803138733 -0.8680999875068665
          -0.164900004863739 -0.9259999990463257 0.33959999680519104 0.3702999949455261 -0.8682000041007996 0.3303999900817871
          0.05700000002980232 -0.9855999946594238 0.1590999960899353 -0.42820000648498535 0.14380000531673431 0.8921999931335449
          -0.39660000801086426 0.13979999721050262 0.9072999954223633 -0.4717000126838684 0.14569999277591705 0.8695999979972839
          -0.033900000154972076 -0.7773000001907349 0.6281999945640564 -0.14020000398159027 -0.7317000031471252 0.6671000123023987
          0.4392000138759613 -0.5723000168800354 0.6924999952316284 0.25110000371932983 -0.08799999952316284 -0.9639999866485596
          0.3321000039577484 -0.06520000100135803 -0.9409999847412109 0.38989999890327454 -0.06319999694824219 -0.9186999797821045
          -0.9577000141143799 0.16120000183582306 0.23829999566078186 -0.9333000183105469 0.16920000314712524 0.31679999828338623
          -0.9466000199317932 0.18389999866485596 0.2648000121116638 0.3928999900817871 0.16850000619888306 0.9039999842643738
          0.47749999165534973 0.1615999937057495 0.8636000156402588 0.5404999852180481 0.11720000207424164 0.8331999778747559
          -0.8277999758720398 -0.2574999928474426 -0.4984999895095825 -0.7958999872207642 -0.2549000084400177 -0.5491999983787537
          -0.8537999987602234 -0.20020000636577606 -0.4805999994277954 0.9689000248908997 -0.10599999874830246 -0.22360000014305115
          0.9520999789237976 -0.0949999988079071 -0.290800005197525 0.958299994468689 -0.12080000340938568 -0.2590000033378601
          -0.2207999974489212 -0.13850000500679016 -0.965399980545044 -0.2921999990940094 -0.11890000104904175 -0.9488999843597412
          -0.3824999928474426 -0.12690000236034393 -0.9151999950408936 0.13840000331401825 0.0754999965429306 0.987500011920929
          0.24709999561309814 0.08349999785423279 0.965399980545044 0.04569999873638153 0.016699999570846558 0.9987999796867371
          0.8001000285148621 0.3675999939441681 0.4740000069141388 0.8118000030517578 0.3614000082015991 0.4587000012397766
          0.8420000076293945 0.3012999892234802 0.44749999046325684 -0.1492999941110611 -0.7896999716758728 0.5950999855995178
          0.2362000048160553 -0.8062000274658203 0.5424000024795532 0.06400000303983688 -0.8396000266075134 0.5394999980926514
          -0.3610999882221222 -0.41600000858306885 0.8345999717712402 -0.4271000027656555 -0.3260999917984009 0.8434000015258789
          0.029500000178813934 -0.11309999972581863 0.9930999875068665 0.9908999800682068 -0.11209999769926071 0.07519999891519547
          0.9739000201225281 -0.17880000174045563 -0.14000000059604645 0.9854999780654907 0.01860000006854534 -0.16840000450611115
          -0.9797000288963318 0.09799999743700027 0.17509999871253967 -0.9743000268936157 0.0940999984741211 0.20479999482631683
          -0.9955999851226807 -0.042399998754262924 -0.08299999684095383 0.6430000066757202 0.5784000158309937 -0.5019999742507935
          0.3765999972820282 0.45829999446868896 -0.8051000237464905 0.7620000243186951 0.20309999585151672 -0.6148999929428101
          0.8525000214576721 -0.34869998693466187 0.3894999921321869 0.8133000135421753 -0.26330000162124634 0.5188999772071838
          0.9542999863624573 0.024900000542402267 0.29789999127388 0.9851999878883362 0.08749999850988388 0.147599995136261
          0.9488999843597412 0.13179999589920044 0.28679999709129333 0.9830999970436096 0.09629999846220016 0.1559000015258789
          -0.3305000066757202 -0.0828000009059906 -0.9401999711990356 -0.10520000010728836 -0.0502999983727932 -0.9932000041007996
          -0.32030001282691956 -0.03280000016093254 -0.9467999935150146 -0.5889000296592712 0.09279999881982803 0.8027999997138977
          -0.8016999959945679 0.06689999997615814 0.5939000248908997 -0.6836000084877014 0.10090000182390213 0.7228000164031982
          0.12630000710487366 0.8222000002861023 -0.5550000071525574 0.17900000512599945 0.6826000213623047 -0.7085999846458435
          0.3294000029563904 0.7904999852180481 -0.5163000226020813 -0.9703999757766724 -0.07259999960660934 -0.23019999265670776
          -0.9860000014305115 -0.06530000269412994 -0.15320000052452087 -0.9883999824523926 -0.05609999969601631 -0.14100000262260437
          -0.6912000179290771 -0.3864000141620636 0.6107000112533569 -0.6754000186920166 -0.19789999723434448 0.7103999853134155
          -0.5220000147819519 -0.33169999718666077 0.7857999801635742 0.10809999704360962 -0.10949999839067459 0.988099992275238
          0.04100000113248825 -0.38659998774528503 0.9212999939918518 0.14229999482631683 -0.2623000144958496 0.9544000029563904
          0.9524999856948853 -0.026399999856948853 -0.30329999327659607 0.9534000158309937 0.02449999935925007 -0.30059999227523804
          0.9244999885559082 0.003599999938160181 -0.38119998574256897 -0.1160999983549118 0.8751000165939331 -0.46970000863075256
          0.03370000049471855 0.9632999897003174 -0.266400009393692 -0.2937000095844269 0.9211000204086304 -0.2556000053882599
          0.44760000705718994 -0.771399974822998 -0.45239999890327454 0.38100001215934753 -0.849399983882904 -0.365200012922287
          0.3508000075817108 -0.7796000242233276 -0.5188999772071838 -0.9611999988555908 -0.27469998598098755 -0.025800000876188278
          -0.9147999882698059 -0.301800012588501 -0.26829999685287476 -0.8335999846458435 -0.41780000925064087 -0.3614000082015991
          0.9485999941825867 0.04280000180006027 -0.31360000371932983 0.8598999977111816 0.22920000553131104 -0.4560999870300293
          0.8970999717712402 0.17820000648498535 -0.4041999876499176 0.8202000260353088 0.09000000357627869 0.5649999976158142
          0.7628999948501587 0.07980000227689743 0.6414999961853027 0.6406000256538391 0.10369999706745148 0.7609000205993652
          0.5253999829292297 -0.058800000697374344 -0.848800003528595 0.43209999799728394 -0.04179999977350235 -0.9009000062942505
          0.5878000259399414 -0.1128000020980835 -0.8011000156402588 -0.5336999893188477 -0.15549999475479126 -0.8312000036239624
          -0.6251999735832214 -0.17399999499320984 -0.7609000205993652 -0.4986000061035156 -0.19050000607967377 -0.8456000089645386
          0.7993999719619751 0.4081000089645386 0.4410000145435333 0.7817000150680542 0.492000013589859 0.3831999897956848
          0.7721999883651733 0.4424000084400177 0.4560999870300293 0.8532000184059143 -0.02329999953508377 0.5210999846458435
          0.8991000056266785 -0.07029999792575836 0.43209999799728394 0.8946999907493591 -0.1347000002861023 0.42579999566078186
          -0.7555000185966492 0.3319999873638153 -0.5648000240325928 -0.9126999974250793 0.33629998564720154 -0.2320999950170517
          -0.8299000263214111 0.12530000507831573 -0.5436999797821045 -0.1987999975681305 -0.9675999879837036 0.1559000015258789
          0.17730000615119934 -0.9732999801635742 0.1459999978542328 -0.4287000000476837 -0.8475000262260437 -0.31299999356269836
          0.9581000208854675 0.26660001277923584 -0.10450000315904617 0.9660000205039978 0.211899995803833 -0.14810000360012054
          0.9235000014305115 0.09179999679327011 -0.3723999857902527 -0.9628000259399414 0.1809999942779541 -0.20059999823570251
          -0.8618000149726868 0.24709999561309814 -0.4429999887943268 -0.843500018119812 0.35510000586509705 -0.40299999713897705
          -0.5202999711036682 0.8352000117301941 0.17790000140666962 -0.6254000067710876 0.7347999811172485 0.2624000012874603
          -0.6520000100135803 0.7556999921798706 -0.06210000067949295 -0.8586000204086304 0.08349999785423279 0.5058000087738037
          -0.8853999972343445 0.0949999988079071 0.45509999990463257 -0.9111999869346619 0.06800000369548798 0.40619999170303345
          -0.6898000240325928 0.00019999999494757503 -0.7239999771118164 -0.6335999965667725 0.013100000098347664 -0.7735000252723694
          -0.7598000168800354 0.023099999874830246 -0.6496999859809875 -0.8794000148773193 0.13930000364780426 0.4551999866962433
          -0.9611999988555908 0.11869999766349792 0.24889999628067017 -0.8973000049591064 0.17389999330043793 0.4056999981403351
          0.7843000292778015 0.023600000888109207 0.6198999881744385 0.7883999943733215 0.016200000420212746 0.6150000095367432
          0.6624000072479248 0.05180000141263008 0.7473999857902527 -0.3621000051498413 0.10849999636411667 0.9258000254631042
          -0.3447999954223633 0.19789999723434448 0.9175999760627747 -0.34049999713897705 0.14110000431537628 0.9296000003814697
          -0.3264000117778778 -0.504800021648407 -0.7990999817848206 -0.4487999975681305 -0.23430000245571136 -0.8623999953269958
          -0.5864999890327454 -0.2712000012397766 -0.7631999850273132 -0.8414999842643738 -0.5242000222206116 0.13079999387264252
          -0.8963000178337097 -0.41130000352859497 0.16590000689029694 -0.7700999975204468 -0.5044000148773193 0.390500009059906
          0.3402000069618225 -0.2937999963760376 -0.8932999968528748 0.2337999939918518 -0.38119998574256897 -0.8944000005722046
          0.11890000104904175 -0.3677000105381012 -0.9222999811172485 -0.7436000108718872 -0.4934999942779541 0.45100000500679016
          -0.767799973487854 -0.4618000090122223 0.4440999925136566 -0.7973999977111816 -0.4862000048160553 0.35740000009536743
          -0.48080000281333923 -0.6413999795913696 0.5978999733924866 -0.7114999890327454 -0.3197000026702881 0.6258000135421753
          -0.9311000108718872 -0.2870999872684479 0.2248000055551529 0.7328000068664551 -0.23980000615119934 0.6367999911308289
          0.7775999903678894 0.07609999924898148 0.6241999864578247 0.9253000020980835 -0.1177000030875206 0.36039999127388
          0.8123999834060669 0.335099995136261 -0.4771000146865845 0.41339999437332153 -0.07150000333786011 -0.9077000021934509
          0.21379999816417694 -0.3666999936103821 -0.9053999781608582 0.46810001134872437 0.14329999685287476 -0.871999979019165
          -0.06669999659061432 0.3544999957084656 -0.932699978351593 0.428600013256073 -0.13330000638961792 -0.8935999870300293
          -0.7437999844551086 0.6538000106811523 -0.13910000026226044 -0.8001999855041504 0.5389000177383423 -0.2632000148296356
          -0.6517000198364258 0.7321000099182129 -0.19820000231266022 -0.11580000072717667 0.5103999972343445 -0.8521000146865845
          -0.08460000157356262 0.6725000143051147 -0.7353000044822693 0.02250000089406967 0.542900025844574 -0.8395000100135803
          0.5583000183105469 0.5843999981880188 0.5889000296592712 0.49630001187324524 0.45410001277923584 0.7398999929428101
          0.4171000123023987 0.614799976348877 0.6693000197410583 0.546500027179718 -0.4733000099658966 0.6909000277519226
          0.40549999475479126 -0.3806999921798706 0.8310999870300293 0.3441999852657318 -0.5794000029563904 0.7387999892234802
          -0.3562000095844269 -0.4510999917984009 -0.8183000087738037 -0.4287000000476837 -0.5364000201225281 -0.7269999980926514
          -0.5992000102996826 -0.5185999870300293 -0.6100000143051147 0.9555000066757202 0.06469999998807907 0.28769999742507935
          0.9391999840736389 0.04800000041723251 0.3398999869823456 0.942300021648407 0.06729999929666519 0.328000009059906
          0.2386000007390976 -0.041200000792741776 -0.9702000021934509 0.2685999870300293 -0.06539999693632126 -0.9610000252723694
          0.2563999891281128 -0.025800000876188278 -0.9661999940872192 -0.659500002861023 0.04780000075697899 0.7501999735832214
          -0.6780999898910522 -0.010900000110268593 0.7348999977111816 -0.8155999779701233 0.30809998512268066 0.48980000615119934
          -0.9800999760627747 -0.12530000507831573 -0.1542000025510788 -0.9491000175476074 -0.15489999949932098 0.274399995803833
          -0.7972000241279602 -0.39739999175071716 0.4544999897480011 -0.4909999966621399 0.6068999767303467 -0.625
          -0.802299976348877 0.36880001425743103 -0.4693000018596649 -0.7042999863624573 0.5285000205039978 -0.4740000069141388
          -0.19789999723434448 0.25850000977516174 -0.9455000162124634 -0.15410000085830688 0.00139999995008111 -0.988099992275238
          -0.15150000154972076 -0.9861000180244446 0.06830000132322311 -0.17509999871253967 -0.7111999988555908 -0.6808000206947327
          -0.05290000140666962 -0.685699999332428 -0.7258999943733215 -0.44179999828338623 -0.23070000112056732 0.8669999837875366
          -0.4023999869823456 0.05139999836683273 0.9139999747276306 -0.2711000144481659 0.25780001282691956 0.9273999929428101
          -0.6564000248908997 0.09200000017881393 0.7487999796867371 -0.6195999979972839 0.12389999628067017 0.7750999927520752
          -0.7817000150680542 0.07590000331401825 0.6190999746322632 -0.1501999944448471 -0.1777999997138977 -0.972599983215332
          -0.0071000000461936 -0.07000000029802322 -0.9975000023841858 -0.1860000044107437 -0.13580000400543213 -0.9731000065803528
          0.6129999756813049 0.6385999917984009 -0.4652000069618225 0.7839000225067139 0.536899983882904 -0.3116999864578247
          0.6689000129699707 0.7400000095367432 -0.07020000368356705 0.07159999758005142 0.31709998846054077 0.9456999897956848
          0.3003999888896942 0.3255999982357025 0.8964999914169312 0.29820001125335693 0.20589999854564667 0.9319999814033508
          -0.4560000002384186 -0.3467999994754791 -0.819599986076355 -0.49160000681877136 -0.125900000333786 -0.8615999817848206
          -0.6445000171661377 -0.21459999680519104 -0.7339000105857849 -0.33149999380111694 -0.6561999917030334 -0.6777999997138977
          -0.18459999561309814 -0.8776000142097473 -0.4424000084400177 -0.10840000212192535 -0.7193999886512756 -0.6861000061035156
          -0.0649000033736229 -0.9656000137329102 0.25200000405311584 -0.11869999766349792 -0.6863999962806702 0.7174999713897705
          0.12929999828338623 -0.6175000071525574 0.7759000062942505 0.3253999948501587 0.9282000064849854 -0.18050000071525574
          0.16539999842643738 0.9807000160217285 -0.10400000214576721 0.3971000015735626 0.9054999947547913 -0.14959999918937683
          0.07329999655485153 0.9972000122070312 -0.014399999752640724 -0.044599998742341995 0.9930999875068665 -0.10830000042915344
          -0.17000000178813934 0.9815999865531921 0.08749999850988388 0.47510001063346863 0.00930000003427267 0.8798999786376953
          0.5823000073432922 0.07339999824762344 0.8095999956130981 0.8241999745368958 -0.0949999988079071 0.5583000183105469
          0.7670999765396118 0.0917000025510788 0.6348999738693237 0.8101000189781189 0.014299999922513962 0.5860999822616577
          0.8840000033378601 0.035100001841783524 0.4661000072956085 0.9865999817848206 -0.12189999967813492 0.10819999873638153
          0.983299970626831 -0.15029999613761902 0.10220000147819519 0.9860000014305115 -0.163100004196167 -0.03420000150799751
          0.512499988079071 0.4546999931335449 0.7283999919891357 0.6449999809265137 0.708299994468689 0.28679999709129333
          0.5394999980926514 0.5637999773025513 0.6252999901771545 0.45899999141693115 0.5616000294685364 -0.6883999705314636
          0.1054999977350235 0.3637999892234802 -0.9254999756813049 0.36579999327659607 0.5271999835968018 -0.7669000029563904
          -0.47040000557899475 -0.18140000104904175 -0.8636000156402588 -0.645799994468689 -0.38679999113082886 -0.65829998254776
          -0.6258999705314636 -0.13619999587535858 -0.7678999900817871 -0.5199000239372253 -0.6807000041007996 -0.5160999894142151
          -0.4966000020503998 -0.6561999917030334 -0.5680999755859375 -0.29179999232292175 -0.8055999875068665 -0.5156000256538391
          -0.8295000195503235 0.15109999477863312 0.5376999974250793 -0.9132000207901001 0.11590000241994858 0.39070001244544983
          -0.8672999739646912 0.16899999976158142 0.4681999981403351 -0.05889999866485596 -0.04830000177025795 -0.9970999956130981
          -0.06419999897480011 -0.025499999523162842 -0.9976000189781189 0.07329999655485153 -0.04089999943971634 -0.9965000152587891
          -0.33820000290870667 0.03359999880194664 -0.940500020980835 -0.35030001401901245 0.030300000682473183 -0.9361000061035156
          -0.07649999856948853 0.003100000089034438 -0.9970999956130981 0.7979000210762024 -0.14219999313354492 -0.5857999920845032
          0.8637999892234802 -0.1071000024676323 -0.49230000376701355 0.9187999963760376 -0.13339999318122864 -0.3716000020503998
          -0.5979999899864197 0.20880000293254852 -0.7738999724388123 -0.6150000095367432 0.31360000371932983 -0.7235000133514404
          -0.5347999930381775 0.31119999289512634 -0.7856000065803528 -0.07580000162124634 -0.9470000267028809 0.31209999322891235
          0.6021000146865845 -0.3077000081539154 0.7366999983787537 0.009999999776482582 -0.7279000282287598 0.6855999827384949
          0.5260000228881836 -0.5619000196456909 0.6384999752044678 0.824999988079071 -0.31439998745918274 0.46970000863075256
          0.41290000081062317 -0.5174999833106995 0.7494999766349792 0.37619999051094055 -0.90420001745224 -0.2020999938249588
          0.45080000162124634 -0.8687999844551086 0.20479999482631683 -0.3100999891757965 -0.9190999865531921 0.24310000240802765
          -0.010999999940395355 0.988099992275238 -0.1535000056028366 -0.2953999936580658 0.9064000248908997 -0.3018999993801117
          0.2736999988555908 0.9592000246047974 -0.07020000368356705 -0.4934999942779541 0.06650000065565109 0.8672000169754028
          -0.876800000667572 -0.3824000060558319 0.29170000553131104 -0.9261999726295471 0.03830000013113022 0.3750999867916107
          -0.8064000010490417 0.2395000010728836 0.5407000184059143 -0.8938000202178955 -0.2337999939918518 0.38260000944137573
          -0.9240000247955322 0.35850000381469727 0.13289999961853027 0.9904999732971191 0.11580000072717667 0.07400000095367432
          0.7554000020027161 0.5837000012397766 0.2978000044822693 0.9007999897003174 -0.2842000126838684 -0.32829999923706055
          -0.4372999966144562 0.14030000567436218 0.8883000016212463 -0.329800009727478 0.0340999998152256 0.9434000253677368
          -0.3312999904155731 0.14890000224113464 0.9316999912261963 -0.9097999930381775 0.1664000004529953 -0.38029998540878296
          -0.9781000018119812 0.05339999869465828 -0.2012999951839447 -0.5259000062942505 -0.15049999952316284 -0.8371000289916992
          -0.41920000314712524 -0.17339999973773956 -0.8912000060081482 -0.603600025177002 -0.21539999544620514 -0.7675999999046326
          0.210999995470047 0.031700000166893005 -0.9769999980926514 0.19949999451637268 0.008999999612569809 -0.9799000024795532
          0.05130000039935112 0.03319999948143959 -0.9980999827384949 -0.7649000287055969 0.243599995970726 0.5963000059127808
          -0.8913999795913696 0.186599999666214 0.4129999876022339 -0.682200014591217 0.3278000056743622 0.6535000205039978
          -0.7573999762535095 0.5796999931335449 0.3003999888896942 -0.1363999992609024 0.9822999835014343 0.1282999962568283
          -0.7739999890327454 0.28119999170303345 0.5672000050544739 -0.8604999780654907 0.07980000227689743 -0.5030999779701233
          -0.9847999811172485 0.0608999989926815 -0.16279999911785126 -0.9890000224113464 0.12460000067949295 0.07930000126361847
          0.9254000186920166 -0.33469998836517334 0.17749999463558197 0.9474999904632568 -0.3172000050544739 0.039900001138448715
          0.9122999906539917 -0.3443000018596649 0.2214999943971634 0.9243999719619751 -0.015599999576807022 0.38100001215934753
          0.980400025844574 0.17399999499320984 0.09269999712705612 0.9747999906539917 0.07940000295639038 0.2085999995470047
          -0.5127000212669373 -0.5360000133514404 -0.6707000136375427 -0.6330000162124634 -0.42899999022483826 -0.6444000005722046
          -0.6358000040054321 -0.3255000114440918 -0.6998999714851379 0.7480000257492065 -0.07989999651908875 0.6589000225067139
          0.6553999781608582 -0.1517000049352646 0.7398999929428101 0.6924999952316284 -0.02370000071823597 0.7210999727249146
          0.021800000220537186 -0.29109999537467957 -0.9563999772071838 -0.0333000011742115 -0.25189998745918274 -0.967199981212616
          -0.17890000343322754 -0.15230000019073486 -0.972000002861023 -0.9211999773979187 0.11110000312328339 0.37290000915527344
          -0.9132000207901001 0.10580000281333923 0.3935999870300293 -0.9585999846458435 0.09130000323057175 0.26980000734329224
          0.04360000044107437 -0.585099995136261 -0.8098000288009644 0.18219999969005585 -0.4255000054836273 -0.8863999843597412
          0.11150000244379044 -0.7657999992370605 -0.6333000063896179 0.8113999962806702 -0.4803999960422516 -0.3330000042915344
          0.4896000027656555 -0.3582000136375427 -0.7950000166893005 0.5252000093460083 -0.476500004529953 -0.7049999833106995
          -0.3109999895095825 0.4490000009536743 0.8377000093460083 -0.5327000021934509 0.526199996471405 0.6628000140190125
          -0.1762000024318695 0.7757999897003174 0.60589998960495 -0.10289999842643738 0.5637999773025513 0.8195000290870667
          -0.163100004196167 0.8194000124931335 0.5494999885559082 0.22779999673366547 0.5372999906539917 0.8120999932289124
          -0.8891000151634216 0.09210000187158585 -0.44830000400543213 -0.8148000240325928 0.11069999635219574 -0.569100022315979
          -0.9534000158309937 0.14309999346733093 -0.265500009059906 0.043299999088048935 0.3395000100135803 -0.9395999908447266
          0.09210000187158585 0.6784999966621399 -0.7287999987602234 -0.02459999918937683 0.5077999830245972 -0.8611000180244446
          0.9070000052452087 0.012199999764561653 0.42089998722076416 0.9035000205039978 -0.020400000736117363 0.42809998989105225
          0.9948999881744385 -0.007499999832361937 -0.10100000351667404 0.9954000115394592 0.011099999770522118 -0.09549999982118607
          0.9908999800682068 0.05609999969601631 0.12240000069141388 0.035100001841783524 -0.8375999927520752 -0.5450999736785889
          0.19840000569820404 -0.6561999917030334 -0.7279999852180481 0.4196000099182129 -0.7106000185012817 -0.5648000240325928
          0.27970001101493835 0.24210000038146973 0.929099977016449 0.6051999926567078 -0.18770000338554382 0.7735999822616577
          0.18950000405311584 0.012500000186264515 0.9818000197410583 -0.4772999882698059 -0.8070999979972839 -0.3474999964237213
          -0.44519999623298645 -0.8145999908447266 -0.3718000054359436 -0.49129998683929443 -0.8194000124931335 -0.2953999936580658
          0.9940000176429749 0.09960000216960907 -0.04569999873638153 0.8582000136375427 0.5097000002861023 -0.06030000001192093
          0.9340999722480774 0.2630999982357025 -0.24130000174045563 -0.6841999888420105 -0.7283999919891357 -0.0364999994635582
          -0.8294000029563904 -0.5533000230789185 0.07670000195503235 -0.6549999713897705 -0.7211999893188477 -0.22540000081062317
          -0.3578999936580658 0.11259999871253967 0.9269999861717224 -0.47040000557899475 -0.0027000000700354576 0.8824999928474426
          -0.5019000172615051 -0.13570000231266022 0.854200005531311 -0.022199999541044235 0.41690000891685486 -0.9086999893188477
          -0.1128000020980835 -0.13580000400543213 -0.9843000173568726 0.4602000117301941 0.11150000244379044 -0.8808000087738037
          0.6682999730110168 0.6682000160217285 -0.32690000534057617 0.32850000262260437 0.5128999948501587 -0.7930999994277954
          -0.035999998450279236 0.4239000082015991 0.9049999713897705 0.6159999966621399 0.021400000900030136 0.7875000238418579
          -0.21140000224113464 -0.31610000133514404 0.9248999953269958 0.9283000230789185 0.3206999897956848 0.1882999986410141
          0.9973999857902527 -0.03310000151395798 0.06319999694824219 0.5781000256538391 -0.0632999986410141 0.8134999871253967
          0.43779999017715454 0.050200000405311584 0.897599995136261 0.43549999594688416 0.00860000029206276 0.9002000093460083
          0.34880000352859497 0.1647000014781952 0.9225999712944031 -0.1396999955177307 0.14560000598430634 0.9793999791145325
          0.0414000004529953 0.164000004529953 0.9855999946594238 -0.17110000550746918 0.14589999616146088 0.974399983882904
          -0.9287999868392944 0.352400004863739 0.11460000276565552 -0.8439000248908997 0.4318999946117401 -0.3181999921798706
          -0.9801999926567078 -0.16519999504089355 0.1088000014424324 0.6187999844551086 0.42419999837875366 -0.6611999869346619
          0.3603000044822693 0.3001999855041504 -0.8831999897956848 0.8050000071525574 0.42100000381469727 -0.4178999960422516
          -0.7213000059127808 -0.5449000000953674 -0.4275999963283539 -0.46219998598098755 -0.4514999985694885 -0.7633000016212463
          -0.7991999983787537 -0.26489999890327454 -0.5394999980926514 -0.6046000123023987 0.7904000282287598 0.09910000115633011
          -0.560699999332428 0.82669997215271 -0.047200001776218414 -0.18000000715255737 0.9836000204086304 0.007300000172108412
          0.35089999437332153 0.1273999959230423 0.9276999831199646 0.5019000172615051 0.042899999767541885 0.8639000058174133
          0.5378000140190125 0.40389999747276306 0.7400000095367432 0.2556000053882599 -0.11909999698400497 0.9593999981880188
          0.38659998774528503 -0.29120001196861267 0.8751000165939331 0.5306000113487244 -0.47119998931884766 0.7045999765396118
          -0.9581000208854675 0.053199999034404755 0.2815999984741211 -0.9732000231742859 -0.010300000198185444 0.2295999974012375
          -0.9707000255584717 0.05649999901652336 0.2337000072002411 -0.7505000233650208 -0.002099999925121665 -0.6608999967575073
          -0.995199978351593 0.0940999984741211 -0.025200000032782555 -0.9021000266075134 -0.057999998331069946 -0.427700012922287
          0.4530999958515167 0.4966000020503998 -0.7404000163078308 0.8909000158309937 0.4503999948501587 -0.05900000035762787
          0.821399986743927 0.4555000066757202 0.3431999981403351 0.8551999926567078 0.29269999265670776 0.4277999997138977
          0.7182000279426575 -0.04259999841451645 0.6945000290870667 0.7103999853134155 0.29429998993873596 0.6394000053405762
          0.8885999917984009 0.2053000032901764 0.4101000130176544 0.9276999831199646 0.34769999980926514 0.13590000569820404
          0.8004999756813049 0.03139999881386757 -0.5985000133514404 0.9593999981880188 0.121799997985363 0.25450000166893005
          0.9361000061035156 0.3001999855041504 0.18330000340938568 -0.9441999793052673 -0.1412999927997589 0.29739999771118164
          -0.9879000186920166 -0.0851999968290329 0.12939999997615814 -0.948199987411499 -0.2840999960899353 -0.14219999313354492
          -0.9821000099182129 -0.05920000001788139 0.17890000343322754 -0.9955000281333923 0.04320000112056732 0.08429999649524689
          -0.9907000064849854 -0.12870000302791595 0.04399999976158142 0.9164000153541565 0.06729999929666519 0.3944999873638153
          0.8615999817848206 0.14409999549388885 0.48660001158714294 0.8672000169754028 0.03799999877810478 0.4966000020503998
          -0.3370000123977661 0.940500020980835 0.043800000101327896 -0.3334999978542328 0.8259000182151794 0.4546000063419342
          -0.0957999974489212 0.9818000197410583 0.16369999945163727 0.9714999794960022 0.029600000008940697 0.2353000044822693
          0.965499997138977 -0.014800000004470348 0.2599000036716461 0.9994999766349792 -0.005900000222027302 0.029600000008940697
          -0.8860999941825867 -0.06400000303983688 -0.45910000801086426 -0.640999972820282 -0.10140000283718109 -0.7609000205993652
          -0.6632000207901001 -0.09669999778270721 -0.7422000169754028 -0.23970000445842743 -0.058800000697374344 -0.9690999984741211
          -0.13120000064373016 -0.04179999977350235 -0.9904999732971191 -0.26089999079704285 -0.01590000092983246 -0.9652000069618225