<?xml version="1.0"?>
<VTKFile type="PolyData" version="0.1" byte_order="LittleEndian" header_type="UInt32" compressor="vtkZLibDataCompressor">
  <PolyData>
    <FieldData>
      <Array type="String" Name="MaterialNames" NumberOfTuples="1" format="ascii">
        109 97 116 101 114 105 97 108 95 48 0
      </Array>
      <Array type="String" Name="MaterialLibraries" NumberOfTuples="1" format="ascii">
        109 97 116 101 114 105 97 108 46 109 116 108 0
      </Array>
    </FieldData>
    <Piece NumberOfPoints="15096" NumberOfVerts="0" NumberOfLines="0" NumberOfStrips="0" NumberOfPolys="30266">
      <PointData Normals="Normals">
        <DataArray type="Float32" Name="Normals" NumberOfComponents="3" format="ascii" RangeMin="0.9999225726987561" RangeMax="1.0000729628454998">
          0.6603999733924866 -0.14180000126361847 0.7373999953269958 0.7972000241279602 -0.11309999972581863 0.5929999947547913
          0.7318000197410583 -0.17569999396800995 0.6585000157356262 -0.8119000196456909 -0.07039999961853027 -0.5795000195503235
          -0.5952000021934509 -0.16179999709129333 -0.7871000170707703 -0.7157999873161316 0.02500000037252903 -0.6978999972343445
          -0.7163000106811523 0.17219999432563782 -0.6761999726295471 -0.6446999907493591 0.02879999950528145 -0.7638999819755554
          -0.6983000040054321 0.09870000183582306 -0.7089999914169312 -0.24459999799728394 0.35249999165534973 0.9032999873161316
          -0.39469999074935913 0.3734999895095825 0.8395000100135803 -0.4226999878883362 0.34360000491142273 0.8385999798774719
          0.9491000175476074 0.12430000305175781 0.28929999470710754 0.9246000051498413 0.11540000140666962 0.3630000054836273
          0.942300021648407 0.006399999838322401 0.3346000015735626 -0.9211999773979187 -0.02250000089406967 0.38839998841285706
          -0.9746000170707703 -0.1808999925851822 0.13220000267028809 -0.8190000057220459 -0.3070000112056732 0.4848000109195709
          -0.9828000068664551 -0.01720000058412552 0.18410000205039978 -0.9631999731063843 -0.018699999898672104 0.26809999346733093
          -0.9905999898910522 -0.00279999990016222 0.13680000603199005 0.6226999759674072 0.6902999877929688 0.3684999942779541
          0.42010000348091125 0.7953000068664551 0.43709999322891235 0.5648999810218811 0.7063000202178955 0.42660000920295715
          -0.19609999656677246 0.017500000074505806 0.980400025844574 -0.33000001311302185 -0.04659999907016754 0.942799985408783
          -0.3052999973297119 0.014100000262260437 0.9520999789237976 -0.6218000054359436 -0.03500000014901161 0.7824000120162964
          -0.5511000156402588 -0.05689999833703041 0.8324999809265137 -0.5544999837875366 -0.06369999796152115 0.829800009727478
          0.7088000178337097 0.04479999840259552 -0.7039999961853027 0.6295999884605408 0.036400001496076584 -0.7760999798774719
          0.5615000128746033 0.04600000008940697 -0.826200008392334 0.22360000014305115 0.052299998700618744 -0.9732999801635742
          0.14229999482631683 0.018400000408291817 -0.9897000193595886 0.21539999544620514 0.032499998807907104 -0.9760000109672546
          -0.5591999888420105 0.22169999778270721 0.798799991607666 -0.7095999717712402 0.026900000870227814 0.7041000127792358
          -0.5041000247001648 0.11670000106096268 0.8557999730110168 0.6959999799728394 -0.060600001364946365 0.715499997138977
          0.6987000107765198 -0.03539999946951866 0.7146000266075134 0.6819000244140625 -0.044199999421834946 0.7300999760627747
          0.37049999833106995 0.46630001068115234 -0.8033000230789185 0.7458000183105469 0.5141000151634216 -0.4237000048160553
          -0.056299999356269836 0.9972000122070312 -0.048900000751018524 -0.5684000253677368 0.2754000127315521 -0.7753000259399414
          -0.6177999973297119 0.23340000212192535 -0.7508999705314636 -0.5928000211715698 0.3382999897003174 -0.73089998960495
          0.8122000098228455 0.2896000146865845 -0.5065000057220459 0.7466999888420105 0.3075000047683716 -0.589900016784668
          0.7383999824523926 0.36239999532699585 -0.5687999725341797 0.9261999726295471 -0.3625999987125397 0.10339999943971634
          0.9038000106811523 -0.304500013589859 0.30079999566078186 0.9452999830245972 -0.326200008392334 -0.005499999970197678
          -0.3612000048160553 -0.9117000102996826 0.19580000638961792 -0.2962000072002411 -0.9128000140190125 0.28130000829696655
          -0.2766999900341034 -0.9606999754905701 0.021299999207258224 -0.4007999897003174 0.9120000004768372 0.08780000358819962
          -0.4117000102996826 0.8535000085830688 0.319599986076355 -0.5217999815940857 0.8522999882698059 0.03610000014305115
          0.8252999782562256 -0.2037999927997589 0.5266000032424927 0.919700026512146 -0.1881999969482422 0.34459999203681946
          0.8288999795913696 -0.21889999508857727 0.5149000287055969 -0.7591000199317932 -0.18219999969005585 -0.625
          -0.7286999821662903 -0.02239999920129776 -0.6844000220298767 -0.6355999708175659 0.018200000748038292 -0.7717999815940857
          -0.9366000294685364 0.0015999999595806003 -0.35030001401901245 -0.8849999904632568 -0.030500000342726707 -0.46459999680519104
          -0.8787999749183655 0.20229999721050262 -0.43220001459121704 0.7799999713897705 -0.025299999862909317 0.6252999901771545
          0.8784999847412109 -0.006200000178068876 0.47769999504089355 0.8264999985694885 -0.0019000000320374966 0.5630000233650208
          0.8364999890327454 -0.08990000188350677 0.5406000018119812 0.7577999830245972 -0.08009999990463257 0.6474999785423279
          0.8884999752044678 -0.025499999523162842 0.45809999108314514 -0.008700000122189522 0.08820000290870667 -0.9961000084877014
          0.09740000218153 0.07599999755620956 -0.9922999739646912 -0.15330000221729279 0.1590999960899353 -0.9753000140190125
          0.9728000164031982 0.00419999985024333 0.23160000145435333 0.9581000208854675 0.013500000350177288 0.28619998693466187
          0.9998000264167786 -0.016300000250339508 0.007000000216066837 0.19009999930858612 0.15469999611377716 -0.9695000052452087
          0.05939999967813492 0.35569998621940613 -0.932699978351593 0.06279999762773514 0.1500999927520752 -0.9866999983787537
          -0.6470999717712402 0.026499999687075615 -0.7620000243186951 -0.7261000275611877 0.18289999663829803 -0.6628000140190125
          -0.8263000249862671 0.2793999910354614 -0.48899999260902405 -0.6596999764442444 0.07450000196695328 -0.7479000091552734
          -0.5712000131607056 -0.04639999940991402 -0.8195000290870667 -0.6583999991416931 -0.07769999653100967 -0.7487000226974487
          0.9679999947547913 0.14069999754428864 -0.20759999752044678 0.9649999737739563 0.1362999975681305 -0.22390000522136688
          0.9854000210762024 0.1517000049352646 -0.07739999890327454 -0.9045000076293945 0.09109999984502792 -0.41670000553131104
          -0.9663000106811523 0.06930000334978104 -0.24799999594688416 -0.8744000196456909 0.0617000013589859 -0.4812999963760376
          0.6883000135421753 -0.014100000262260437 0.7253000140190125 0.5929999947547913 -0.009100000374019146 0.8051000237464905
          -0.7109000086784363 0.5849000215530396 -0.390500009059906 -0.7710000276565552 0.5584999918937683 -0.3059999942779541
          -0.704200029373169 0.6306999921798706 -0.32600000500679016 0.1356000006198883 0.16099999845027924 -0.9775999784469604
          -0.0052999998442828655 0.13259999454021454 -0.9911999702453613 0.05040000006556511 0.30880001187324524 -0.9498000144958496
          -0.9107999801635742 0.12710000574588776 -0.3926999866962433 -0.9099000096321106 0.10419999808073044 -0.40139999985694885
          -0.7710000276565552 0.14110000431537628 -0.6209999918937683 -0.9283000230789185 0.01860000006854534 -0.37130001187324524
          -0.777899980545044 0.08139999955892563 -0.6230999827384949 0.994700014591217 -0.08100000023841858 0.0640999972820282
          0.9965999722480774 -0.04170000180602074 0.07079999893903732 0.9915000200271606 0.002199999988079071 -0.13050000369548798
          -0.8205000162124634 0.040699999779462814 -0.5702000260353088 -0.724399983882904 0.05979999899864197 -0.6868000030517578
          -0.8360999822616577 0.08150000125169754 -0.5424000024795532 -0.9247999787330627 -0.03550000116229057 0.37880000472068787
          -0.9667999744415283 0.2515000104904175 -0.04520000144839287 -0.975600004196167 0.21969999372959137 -0.00559999980032444
          -0.8367999792098999 0.44040000438690186 0.325300008058548 -0.7294999957084656 0.6388999819755554 0.24420000612735748
          -0.7580000162124634 0.525600016117096 0.3862000107765198 0.996999979019165 -0.06679999828338623 0.03790000081062317
          0.9731000065803528 -0.07479999959468842 -0.21809999644756317 0.9735999703407288 -0.16030000150203705 -0.16279999911785126
          0.06769999861717224 -0.34599998593330383 -0.9358000159263611 0.266400009393692 -0.32249999046325684 -0.90829998254776
          0.3693999946117401 -0.23469999432563782 -0.8992000222206116 -0.29120001196861267 -0.9419000148773193 0.1671999990940094
          -0.21699999272823334 -0.9743000268936157 0.0608999989926815 0.13349999487400055 0.8586999773979187 0.4948999881744385
          0.1688999980688095 0.9463000297546387 0.27559998631477356 0.08900000154972076 0.9211000204086304 0.3788999915122986
          0.08020000159740448 -0.6783000230789185 -0.730400025844574 -0.07890000194311142 -0.5694000124931335 -0.8183000087738037
          0.037300001829862595 -0.592199981212616 -0.8048999905586243 -0.24199999868869781 0.09120000153779984 0.9660000205039978
          -0.05730000138282776 0.012199999764561653 0.9983000159263611 -0.179299995303154 0.14139999449253082 0.9735999703407288
          -0.8907999992370605 -0.11029999703168869 0.4408000111579895 -0.775600016117096 -0.0738999992609024 0.626800000667572
          -0.8680999875068665 -0.10279999673366547 0.48559999465942383 -0.7044000029563904 -0.011599999852478504 0.7096999883651733
          -0.6851999759674072 0.043699998408555984 0.7271000146865845 -0.5929999947547913 0.06870000064373016 0.802299976348877
          0.9228000044822693 0.013899999670684338 0.38499999046325684 0.9225999712944031 0.023900000378489494 0.38499999046325684
          0.9398000240325928 0.0215000007301569 0.3409999907016754 -0.3743000030517578 -0.0949999988079071 0.9223999977111816
          -0.3075000047683716 -0.08789999783039093 0.9474999904632568 -0.3917999863624573 -0.050200000405311584 0.9186999797821045
          0.9781000018119812 0.00019999999494757503 0.20829999446868896 0.9261000156402588 -0.013500000350177288 0.37709999084472656
          0.968999981880188 0.0729999989271164 0.2362000048160553 -0.4262999892234802 -0.7875000238418579 -0.44510000944137573
          -0.20909999310970306 -0.7490000128746033 -0.6287000179290771 -0.7616999745368958 -0.4749999940395355 -0.4406000077724457
          0.9143999814987183 -0.027799999341368675 0.40389999747276306 0.7645999789237976 -0.04520000144839287 0.6428999900817871
          0.9753999710083008 -0.009499999694526196 0.22040000557899475 -0.1137000024318695 -0.06729999929666519 0.9911999702453613
          -0.10999999940395355 -0.05469999834895134 0.9923999905586243 0.1688999980688095 -0.009499999694526196 0.9855999946594238
          0.5199999809265137 0.044199999421834946 0.8529999852180481 0.47279998660087585 0.05299999937415123 0.8795999884605408
          0.5372999906539917 -0.09560000151395798 0.8379999995231628 0.6819999814033508 -0.34040001034736633 0.6473000049591064
          0.6018000245094299 -0.3537999987602234 0.7160000205039978 0.5735999941825867 -0.2761000096797943 0.7712000012397766
          -0.6794999837875366 0.012199999764561653 -0.7335000038146973 -0.7412999868392944 0.0348999984562397 -0.670199990272522
          -0.7595000267028809 0.05260000005364418 -0.6482999920845032 0.5163999795913696 -0.016100000590085983 0.8561999797821045
          0.43549999594688416 0.07270000129938126 0.8973000049591064 0.6054999828338623 0.12080000340938568 0.7865999937057495
          -0.6869000196456909 0.04270000010728836 -0.7253999710083008 -0.6176000237464905 0.07639999687671661 -0.782800018787384
          -0.6563000082969666 0.061500001698732376 -0.7519999742507935 0.9911999702453613 -0.012000000104308128 -0.13199999928474426
          0.9546999931335449 0.026100000366568565 -0.2964000105857849 0.9782000184059143 0.007400000002235174 -0.20730000734329224
          -0.3959999978542328 -0.2955999970436096 -0.8694000244140625 -0.12849999964237213 -0.17270000278949738 -0.9765999913215637
          -0.18209999799728394 -0.014000000432133675 -0.9832000136375427 -0.8995000123977661 -0.03779999911785126 0.43529999256134033
          -0.9269999861717224 -0.16099999845027924 0.33880001306533813 -0.9445000290870667 -0.07280000299215317 0.32030001282691956
          -0.5170000195503235 0.8526999950408936 0.07460000365972519 -0.36340001225471497 0.9308000206947327 0.039400000125169754
          -0.3614000082015991 0.9243000149726868 0.1225999966263771 0.8565999865531921 -0.48739999532699585 -0.16930000483989716
          0.7943999767303467 -0.5978000164031982 -0.10769999772310257 0.8499000072479248 -0.4853000044822693 -0.2053000032901764
          -0.6712999939918518 -0.2743000090122223 0.6884999871253967 -0.6373000144958496 -0.7389000058174133 0.21879999339580536
          -0.9484000205993652 -0.030899999663233757 -0.3154999911785126 -0.5382000207901001 0.8403000235557556 0.06480000168085098
          -0.557200014591217 0.8162000179290771 0.1526000052690506 -0.3619999885559082 0.9309999942779541 0.047200001776218414
          -0.3955000042915344 0.5932999849319458 0.701200008392334 0.09769999980926514 0.01810000091791153 0.9951000213623047
          -0.6771000027656555 0.027400000020861626 0.7354000210762024 -0.6696000099182129 0.006899999920278788 -0.7426999807357788
          -0.8019000291824341 0.11490000039339066 -0.5863999724388123 -0.6291999816894531 0.05739999935030937 -0.7750999927520752
          0.9980999827384949 -0.008799999952316284 0.061000000685453415 0.9995999932289124 -0.005200000014156103 -0.027000000700354576
          0.9980999827384949 -0.031700000166893005 -0.05249999836087227 0.09589999914169312 0.007600000128149986 -0.9954000115394592
          0.08919999748468399 -0.0008999999845400453 -0.9959999918937683 0.25110000371932983 -0.02370000071823597 -0.9677000045776367
          0.09000000357627869 -0.9945999979972839 -0.05130000039935112 0.06419999897480011 -0.983299970626831 0.17030000686645508
          0.3147999942302704 -0.9483000040054321 0.040300000458955765 -0.8837000131607056 0.4634000062942505 0.0658000037074089
          -0.9031000137329102 0.3700999915599823 0.21780000627040863 -0.8690999746322632 0.4659000039100647 0.16599999368190765
          0.2773999869823456 -0.32120001316070557 -0.9053999781608582 0.12559999525547028 -0.5663999915122986 -0.8144999742507935
          0.21860000491142273 -0.36000001430511475 -0.9070000052452087 -0.38440001010894775 0.3831999897956848 0.839900016784668
          -0.42579999566078186 0.21299999952316284 0.8794000148773193 -0.26019999384880066 0.3248000144958496 0.9093000292778015
          -0.2176000028848648 0.00989999994635582 0.9760000109672546 -0.06809999793767929 0.024299999698996544 0.9973999857902527
          -0.3084000051021576 -0.05130000039935112 0.9498999714851379 -0.7516000270843506 -0.03660000115633011 -0.6585999727249146
          -0.8899999856948853 -0.03009999915957451 -0.45489999651908875 -0.9111999869346619 -0.018699999898672104 -0.4115000069141388
          0.6432999968528748 -0.0012000000569969416 -0.7656000256538391 0.6545000076293945 -0.0284000001847744 -0.7555999755859375
          0.7069000005722046 -0.029400000348687172 -0.7067000269889832 0.9121999740600586 0.07649999856948853 -0.4025000035762787
          0.7764000296592712 0.0035000001080334187 -0.630299985408783 0.7656999826431274 0.04470000043511391 -0.6416000127792358
          0.1826999932527542 0.4198000133037567 0.8889999985694885 0.03530000150203705 0.26669999957084656 0.963100016117096
          0.035599999129772186 0.35339999198913574 0.9348000288009644 0.25189998745918274 -0.10199999809265137 0.9624000191688538
          0.20659999549388885 -0.28600001335144043 0.935699999332428 0.3646000027656555 -0.16590000689029694 0.9162999987602234
          -0.17589999735355377 -0.4681999981403351 -0.8658999800682068 0.3215999901294708 -0.8736000061035156 -0.3652999997138977
          0.38339999318122864 -0.12970000505447388 -0.9144999980926514 -0.8622999787330627 -0.03539999946951866 -0.5051000118255615
          -0.628600001335144 -0.12150000035762787 -0.7681999802589417 -0.9090999960899353 -0.1525000035762787 -0.38760000467300415
          0.12409999966621399 0.033399999141693115 -0.9916999936103821 0.20559999346733093 0.02879999950528145 -0.9782000184059143
          0.057100001722574234 0.02329999953508377 -0.9980999827384949 -0.15690000355243683 -0.07989999651908875 0.9843999743461609
          -0.17249999940395355 -0.05350000038743019 0.9836000204086304 -0.1860000044107437 -0.019200000911951065 0.9824000000953674
          0.9941999912261963 -0.06800000369548798 -0.08320000022649765 0.9513000249862671 -0.05530000105500221 0.30320000648498535
          0.970300018787384 -0.07079999893903732 0.23119999468326569 0.6263999938964844 0.10010000318288803 -0.7731000185012817
          0.5318999886512756 0.13760000467300415 -0.8355000019073486 0.6208000183105469 0.11789999902248383 -0.7749999761581421
          0.11420000344514847 0.3305000066757202 0.9369000196456909 0.34950000047683716 0.36719998717308044 0.8619999885559082
          0.2500999867916107 0.32330000400543213 0.9126999974250793 0.24660000205039978 0.09210000187158585 0.9646999835968018
          0.4821000099182129 -0.00019999999494757503 0.8761000037193298 0.4702000021934509 -0.02410000003874302 0.8822000026702881
          0.45399999618530273 0.09950000047683716 -0.8853999972343445 0.5310999751091003 0.12620000541210175 -0.8378999829292297
          0.5515000224113464 0.13819999992847443 -0.8226000070571899 1 0.0013000000035390258 0.0052999998442828655
          0.9986000061035156 -0.03139999881386757 0.042500000447034836 0.512499988079071 0.5156999826431274 -0.6866000294685364
          0.5077000260353088 0.40860000252723694 -0.7584999799728394 0.36390000581741333 0.6065999865531921 -0.7067999839782715
          -0.23549999296665192 0.9699000120162964 0.061500001698732376 -0.21809999644756317 0.9757000207901001 -0.02160000056028366
          -0.23440000414848328 0.9710999727249146 -0.04410000145435333 0.3522999882698059 -0.3441999852657318 0.8702999949455261
          0.12470000237226486 -0.669700026512146 0.7321000099182129 -0.05959999933838844 -0.5248000025749207 0.8492000102996826
          -0.4973999857902527 0.46160000562667847 -0.734499990940094 -0.4702000021934509 0.3192000091075897 -0.8227999806404114
          -0.29789999127388 0.4677000045776367 -0.832099974155426 -0.9161999821662903 -0.3359000086784363 0.21860000491142273
          -0.7170000076293945 -0.4763999879360199 -0.5088000297546387 -0.6725999712944031 -0.1306000053882599 -0.7283999919891357
          -0.5437999963760376 -0.4203000068664551 -0.7264000177383423 -0.08190000057220459 -0.011900000274181366 -0.9965999722480774
          -0.583299994468689 0.02979999966919422 -0.8116999864578247 -0.241799995303154 0.04580000042915344 -0.9692000150680542
          -0.43540000915527344 0.04879999905824661 -0.8988999724388123 -0.2506999969482422 0.02979999966919422 -0.9675999879837036
          -0.8323000073432922 0.08340000361204147 -0.5479999780654907 -0.8077999949455261 0.05079999938607216 -0.5873000025749207
          -0.7171000242233276 0.08320000022649765 -0.6919999718666077 0.11299999803304672 -0.9879000186920166 0.10599999874830246
          -0.09809999912977219 -0.9869999885559082 -0.12720000743865967 -0.15860000252723694 -0.9839000105857849 0.08190000057220459
          0.06199999898672104 -0.12370000034570694 0.9904000163078308 -0.17990000545978546 0.3222000002861023 0.9294000267982483
          0.1088000014424324 0.05999999865889549 0.9922999739646912 0.5806000232696533 0.0957999974489212 -0.8084999918937683
          0.5532000064849854 0.0723000019788742 -0.8299000263214111 0.6489999890327454 0.14800000190734863 -0.7462999820709229
          0.13920000195503235 0.16009999811649323 -0.9771999716758728 0.13030000030994415 -0.047200001776218414 -0.9904000163078308
          0.17669999599456787 -0.007600000128149986 -0.9842000007629395 -0.9983999729156494 -0.05609999969601631 0.007400000002235174
          -0.9932000041007996 0.07840000092983246 -0.08609999716281891 -0.9954000115394592 -0.010400000028312206 -0.09539999812841415
          -0.998199999332428 0.023000000044703484 0.05530000105500221 -0.9962999820709229 0.06769999861717224 0.05299999937415123
          -0.9858999848365784 0.047600001096725464 0.16019999980926514 -0.9311000108718872 0.07069999724626541 -0.3578999936580658
          -0.8701000213623047 0.06069999933242798 -0.48919999599456787 -0.8902999758720398 0.12409999966621399 -0.43810001015663147
          0.4032999873161316 0.0763000026345253 -0.911899983882904 0.4284000098705292 0.07180000096559525 -0.9006999731063843
          0.26980000734329224 0.06260000169277191 -0.9609000086784363 0.7889999747276306 -0.009100000374019146 0.614300012588501
          0.7454000115394592 0.0038999998942017555 0.6665999889373779 0.7538999915122986 0.01850000023841858 0.6567999720573425
          0.8781999945640564 -0.048700001090765 0.47589999437332153 0.9297999739646912 -0.02280000038444996 0.36730000376701355
          0.9072999954223633 -0.026200000196695328 0.4196000099182129 -0.448199987411499 -0.8877999782562256 -0.10490000247955322
          -0.43959999084472656 -0.8873000144958496 -0.13940000534057617 -0.32359999418258667 -0.9391999840736389 -0.11479999870061874
          -0.34290000796318054 -0.06610000133514404 0.9369999766349792 -0.4837999939918518 -0.07940000295639038 0.8715999722480774
          -0.43529999256134033 -0.05640000104904175 0.8985000252723694 0.2721000015735626 -0.84170001745224 0.46630001068115234
          0.2312999963760376 -0.8302000164985657 0.5073000192642212 0.08079999685287476 -0.941100001335144 0.32839998602867126
          0.8906000256538391 0.007000000216066837 0.454800009727478 0.8888000249862671 -0.011300000362098217 0.45809999108314514
          -0.09070000052452087 0.9039000272750854 -0.4180999994277954 -0.5751000046730042 0.5848000049591064 -0.5720000267028809
          0.2948000133037567 0.6341000199317932 -0.714900016784668 0.8804000020027161 -0.4740999937057495 -0.008200000040233135
          0.17000000178813934 -0.9079999923706055 -0.3828999996185303 0.847599983215332 -0.5231000185012817 -0.08900000154972076
          -0.48660001158714294 -0.7595000267028809 -0.4318000078201294 -0.15760000050067902 -0.5742999911308289 -0.8033000230789185
          -0.43869999051094055 -0.13429999351501465 -0.8885999917984009 -0.6847000122070312 0.6352999806404114 0.3571999967098236
          -0.5683000087738037 0.7192000150680542 0.39980000257492065 0.7361000180244446 0.031700000166893005 0.6761999726295471
          0.6406999826431274 0.07680000364780426 0.7639999985694885 -0.9207000136375427 -0.05510000139474869 0.3865000009536743
          -0.7839999794960022 -0.03519999980926514 0.6197999715805054 -0.8537999987602234 -0.012900000438094139 0.5205000042915344
          -0.9972000122070312 0.057500001043081284 -0.047200001776218414 -0.9732999801635742 0.0007999999797903001 -0.2296999990940094
          -0.6460999846458435 0.7494000196456909 -0.14489999413490295 -0.6219000220298767 0.04179999977350235 -0.7820000052452087
          -0.5551000237464905 0.10379999876022339 -0.8252999782562256 -0.7038999795913696 0.06679999828338623 -0.707099974155426
          -0.9390000104904175 -0.2214999943971634 -0.2632000148296356 -0.8708999752998352 -0.0697999969124794 -0.4864000082015991
          -0.9898999929428101 -0.1370999962091446 -0.03660000115633011 -0.9466000199317932 0.20389999449253082 -0.24969999492168427
          -0.9642999768257141 0.2425999939441681 -0.10599999874830246 -0.9564999938011169 0.2712000012397766 0.10719999670982361
          -0.784600019454956 0.2953000068664551 0.545199990272522 -0.9182999730110168 0.1462000012397766 0.3677999973297119
          -0.5299999713897705 0.3361999988555908 0.7785000205039978 0.9185000061988831 -0.125900000333786 0.3747999966144562
          0.9731000065803528 -0.21870000660419464 0.07280000299215317 0.9761999845504761 -0.21709999442100525 -0.0015999999595806003
          -0.1979999989271164 0.08470000326633453 -0.9764999747276306 0.11969999969005585 -0.1906999945640564 -0.9743000268936157
          0.3702000081539154 -0.15649999678134918 -0.9157000184059143 -0.24199999868869781 0.1006999984383583 0.9649999737739563
          -0.42309999465942383 0.23240000009536743 0.8758000135421753 0.7202000021934509 0.08820000290870667 0.6881999969482422
          -0.8260999917984009 0.01209999993443489 0.5633999705314636 -0.7412999868392944 -0.3111000061035156 0.5946999788284302
          -0.8867999911308289 -0.00989999994635582 0.4620000123977661 -0.7648000121116638 -0.07119999825954437 0.6402999758720398
          -0.8712999820709229 0.06310000270605087 0.48669999837875366 -0.7200000286102295 -0.00989999994635582 0.6938999891281128
          -0.9907000064849854 -0.007400000002235174 -0.13590000569820404 -0.9865000247955322 -0.042399998754262924 0.1582999974489212
          -0.9689000248908997 -0.065700002014637 0.23849999904632568 0.8500999808311462 -0.32429999113082886 -0.41499999165534973
          0.8529999852180481 -0.23919999599456787 -0.46389999985694885 0.863099992275238 -0.35190001130104065 -0.362199991941452
          0.5461000204086304 -0.2809000015258789 -0.7892000079154968 0.45840001106262207 -0.2467000037431717 -0.8537999987602234
          0.41119998693466187 -0.2922999858856201 -0.8633999824523926 0.9721999764442444 0.03610000014305115 -0.23119999468326569
          0.9699000120162964 0.13760000467300415 -0.20069999992847443 0.6083999872207642 0.09880000352859497 0.7875000238418579
          0.3118000030517578 -0.02329999953508377 0.9498999714851379 0.6554999947547913 0.07649999856948853 0.7512999773025513
          -0.9246000051498413 0.20100000500679016 -0.32359999418258667 -0.961899995803833 0.2053000032901764 -0.18070000410079956
          -0.9732000231742859 0.14550000429153442 -0.17790000140666962 -0.15360000729560852 -0.01769999973475933 0.9879999756813049
          0.0031999999191612005 0.031199999153614044 0.9994999766349792 0.06729999929666519 -0.004699999932199717 0.9976999759674072
          -0.7748000025749207 0.07429999858140945 -0.6277999877929688 -0.8597999811172485 -0.023099999874830246 -0.5099999904632568
          -0.8052999973297119 -0.007600000128149986 -0.5928000211715698 0.887499988079071 0.025800000876188278 -0.46000000834465027
          0.9643999934196472 0.0333000011742115 -0.2624000012874603 0.8878999948501587 0.049300000071525574 -0.45730000734329224
          -0.6758999824523926 -0.012400000356137753 -0.7368999719619751 -0.6273999810218811 0.03909999877214432 -0.7777000069618225
          -0.6654999852180481 0.040300000458955765 -0.7452999949455261 0.0908999964594841 -0.035999998450279236 0.995199978351593
          0.05139999836683273 -0.0723000019788742 0.9961000084877014 0.1136000007390976 -0.1023000031709671 0.9882000088691711
          -0.9789000153541565 -0.03370000049471855 0.20170000195503235 -0.9872999787330627 0.0066999997943639755 0.15880000591278076
          -0.9750999808311462 0.020999999716877937 0.22089999914169312 -0.3310999870300293 0.3831000030040741 0.8622999787330627
          -0.16979999840259552 0.3603000044822693 0.9172999858856201 -0.45089998841285706 0.33559998869895935 0.8270999789237976
          -0.42320001125335693 -0.03139999881386757 -0.9054999947547913 -0.3319999873638153 0.09539999812841415 -0.9383999705314636
          -0.4011000096797943 0.2460000067949295 -0.8823999762535095 0.3449000120162964 0.23499999940395355 0.9086999893188477
          -0.18060000240802765 -0.07509999722242355 0.9807000160217285 0.11879999935626984 -0.025599999353289604 0.9926000237464905
          0.6211000084877014 0.49950000643730164 0.6039999723434448 0.7142999768257141 0.5932999849319458 0.3711000084877014
          0.7921000123023987 0.5401999950408936 0.2842999994754791 -0.7023000121116638 -0.11289999634027481 -0.7028999924659729
          -0.6751999855041504 -0.3596000075340271 -0.64410001039505 -0.7002000212669373 -0.40720000863075256 -0.5864999890327454
          -0.4489000141620636 -0.7935000061988831 -0.4108999967575073 -0.3919000029563904 -0.5159000158309937 -0.7617999911308289
          -0.4657000005245209 -0.5544999837875366 -0.6897000074386597 -0.8134999871253967 0.034699998795986176 -0.5806000232696533
          -0.7828999757766724 -0.008700000122189522 -0.6220999956130981 -0.7806000113487244 0.00860000029206276 -0.6248999834060669
          -0.8205000162124634 -0.025800000876188278 -0.5709999799728394 -0.6983000040054321 0.004800000227987766 -0.7157999873161316
          -0.6050999760627747 -0.060600001364946365 -0.7939000129699707 0.7745000123977661 0.044199999421834946 -0.6309999823570251
          0.7810999751091003 0.0348999984562397 -0.6233999729156494 0.8118000030517578 0.01080000028014183 -0.583899974822998
          0.9465000033378601 -0.01640000008046627 -0.3222000002861023 0.9308000206947327 0.05570000037550926 -0.3612000048160553
          0.8844000101089478 0.06289999932050705 -0.4625000059604645 -0.7099999785423279 -0.0005000000237487257 -0.704200029373169
          -0.6407999992370605 -0.13339999318122864 -0.7559999823570251 -0.6068000197410583 0.08500000089406967 -0.7903000116348267
          -0.09560000151395798 -0.06129999831318855 -0.9934999942779541 0.14910000562667847 -0.048900000751018524 -0.9876000285148621