<?xml version="1.0"?>
<VTKFile type="PolyData" version="0.1" byte_order="LittleEndian" header_type="UInt32" compressor="vtkZLibDataCompressor">
  <PolyData>
    <FieldData>
      <Array type="String" Name="MaterialNames" NumberOfTuples="1" format="ascii">
        109 97 116 101 114 105 97 108 95 48 0
      </Array>
      <Array type="String" Name="MaterialLibraries" NumberOfTuples="1" format="ascii">
        109 97 116 101 114 105 97 108 46 109 116 108 0
      </Array>
    </FieldData>
    <Piece NumberOfPoints="17606" NumberOfVerts="0" NumberOfLines="0" NumberOfStrips="0" NumberOfPolys="35273">
      <PointData Normals="Normals">
        <DataArray type="Float32" Name="Normals" NumberOfComponents="3" format="ascii" RangeMin="0.9999240983892138" RangeMax="1.000078347624557">
          0.7821999788284302 0.17649999260902405 0.5974000096321106 0.7901999950408936 0.09350000321865082 0.6055999994277954
          0.8260999917984009 0.17599999904632568 0.5353000164031982 -0.44209998846054077 -0.13490000367164612 -0.8866999745368958
          -0.38119998574256897 -0.2151000052690506 -0.8991000056266785 -0.3163999915122986 -0.1428000032901764 -0.9377999901771545
          -0.9966999888420105 0.07940000295639038 -0.01600000075995922 -0.9976999759674072 0.05119999870657921 -0.043699998408555984
          -0.9919999837875366 0.06719999760389328 -0.10639999806880951 0.9739999771118164 -0.14020000398159027 0.17820000648498535
          0.9779000282287598 -0.13339999318122864 0.16110000014305115 0.975600004196167 -0.1607999950647354 0.14959999918937683
          -0.6531999707221985 0.27480000257492065 0.7055000066757202 -0.7416999936103821 0.26109999418258667 0.6177999973297119
          -0.7910000085830688 0.27709999680519104 0.5454000234603882 0.5960000157356262 0.3456999957561493 -0.7247999906539917
          0.4869000017642975 0.4169999957084656 -0.7674999833106995 0.5235000252723694 0.46070000529289246 -0.71670001745224
          -0.5620999932289124 -0.8170999884605408 0.12790000438690186 -0.5008000135421753 -0.8615999817848206 0.08320000022649765
          -0.4203999936580658 -0.9021999835968018 0.09610000252723694 0.007400000002235174 -0.08709999918937683 -0.9962000250816345
          0.14839999377727509 -0.0989999994635582 -0.984000027179718 0.15160000324249268 -0.07490000128746033 -0.9855999946594238
          -0.8672000169754028 0.001500000013038516 -0.49799999594688416 -0.8439000248908997 -0.003800000064074993 -0.5364999771118164
          -0.8346999883651733 -0.05090000107884407 -0.5483999848365784 -0.4708000123500824 0.09619999676942825 0.8769999742507935
          -0.47049999237060547 0.12700000405311584 0.873199999332428 -0.4262000024318695 0.09690000116825104 0.899399995803833
          0.1306000053882599 -0.19169999659061432 -0.9726999998092651 0.3343999981880188 -0.1216999962925911 -0.934499979019165
          0.22910000383853912 -0.08370000123977661 -0.9697999954223633 -0.15209999680519104 0.14270000159740448 0.9779999852180481
          -0.14020000398159027 0.13670000433921814 0.9805999994277954 -0.1518000066280365 0.11010000109672546 0.9822999835014343
          0.3709000051021576 0.926800012588501 -0.05920000001788139 0.4293000102043152 0.9021000266075134 -0.04399999976158142
          0.29179999232292175 0.9557999968528748 -0.03519999980926514 -0.6452999711036682 -0.21140000224113464 -0.7340999841690063
          -0.718999981880188 -0.1696999967098236 -0.6740000247955322 -0.718999981880188 -0.164000004529953 -0.6754000186920166
          0.6158000230789185 -0.692799985408783 -0.37529999017715454 0.4925999939441681 -0.7664999961853027 -0.4120999872684479
          0.7038999795913696 -0.5807999968528748 -0.4090000092983246 -0.5480999946594238 -0.8363999724388123 -0.010599999688565731
          -0.5489000082015991 -0.8345000147819519 0.04899999871850014 -0.42100000381469727 -0.8547999858856201 0.3034000098705292
          0.03189999982714653 0.24580000340938568 -0.9688000082969666 -0.1632000058889389 0.27149999141693115 -0.9484999775886536
          -0.06790000200271606 0.16779999434947968 -0.9835000038146973 0.39750000834465027 0.48100000619888306 -0.7814000248908997
          0.602400004863739 0.31369999051094055 -0.7339000105857849 0.34630000591278076 0.5509999990463257 -0.7592999935150146
          0.1915999948978424 -0.574999988079071 0.7954000234603882 0.6929000020027161 -0.27059999108314514 0.6682999730110168
          0.1518000066280365 -0.8109999895095825 -0.5649999976158142 -0.6833000183105469 0.45019999146461487 0.5748000144958496
          -0.6085000038146973 0.37130001187324524 0.7013000249862671 -0.6593000292778015 0.33570000529289246 0.6728000044822693
          -0.40389999747276306 -0.5699999928474426 0.715499997138977 -0.8503000140190125 -0.2513999938964844 0.46230000257492065
          -0.808899998664856 -0.5163999795913696 0.28119999170303345 -0.19979999959468842 0.13330000638961792 -0.9707000255584717
          0.17509999871253967 0.14710000157356262 -0.9735000133514404 -0.25540000200271606 0.16519999504089355 -0.9526000022888184
          -0.766700029373169 0.040800001472234726 -0.6406999826431274 -0.5701000094413757 -0.03929999843239784 -0.8205999732017517
          -0.5906999707221985 0.0502999983727932 -0.8052999973297119 0.9855999946594238 -0.1354999989271164 0.10109999775886536
          0.9896000027656555 -0.09560000151395798 0.10769999772310257 0.9902999997138977 -0.12890000641345978 0.052000001072883606
          0.8586999773979187 0.0357000008225441 0.5113000273704529 0.8483999967575073 -0.07530000060796738 0.5238999724388123
          0.9067999720573425 0.07810000330209732 0.41440001130104065 -0.19850000739097595 0.08460000157356262 0.9764000177383423
          -0.20360000431537628 0.10599999874830246 0.9732999801635742 -0.3075999915599823 0.08560000360012054 0.947700023651123
          -0.9718999862670898 0.16529999673366547 -0.16779999434947968 -0.9772999882698059 0.17339999973773956 -0.12139999866485596
          -0.9818999767303467 0.17190000414848328 -0.07989999651908875 -0.8827999830245972 0.01759999990463257 0.46950000524520874
          -0.9264000058174133 0.03370000049471855 0.3750999867916107 -0.8550000190734863 0.10499999672174454 0.5077999830245972
          0.9733999967575073 -0.11680000275373459 -0.19689999520778656 0.9829000234603882 -0.11309999972581863 -0.1454000025987625
          0.9940999746322632 -0.10790000110864639 0.010999999940395355 0.7531999945640564 -0.035999998450279236 -0.6567999720573425
          0.7833999991416931 0.0272000003606081 -0.6209999918937683 0.755299985408783 -0.029400000348687172 -0.6547999978065491
          0.9158999919891357 -0.40130001306533813 0.00570000009611249 0.917900025844574 -0.3797000050544739 0.11540000140666962
          0.9154000282287598 -0.39489999413490295 0.07779999822378159 0.22280000150203705 -0.2687999904155731 -0.9370999932289124
          0.03370000049471855 -0.22920000553131104 -0.9728000164031982 0.20260000228881836 -0.43050000071525574 -0.8795999884605408
          0.5735999941825867 -0.8187999725341797 0.023900000378489494 -0.27709999680519104 -0.9478999972343445 0.15700000524520874
          0.4828999936580658 -0.6514000296592712 0.5852000117301941 -0.6664000153541565 0.7419999837875366 0.07370000332593918
          -0.6692000031471252 0.7095000147819519 -0.2207999974489212 -0.6366000175476074 0.7706999778747559 0.027300000190734863
          -0.9818999767303467 0.07580000162124634 0.17329999804496765 -0.979200005531311 -0.11500000208616257 -0.1670999974012375
          -0.9951000213623047 0.08829999715089798 0.04470000043511391 -0.6028000116348267 -0.3061999976634979 -0.7368000149726868
          -0.8202000260353088 -0.09369999915361404 -0.5644000172615051 -0.8507000207901001 -0.4361000061035156 -0.29350000619888306
          -0.7407000064849854 0.2815000116825104 -0.6100000143051147 -0.8129000067710876 0.24310000240802765 -0.5292999744415283
          -0.6837000250816345 0.32670000195503235 -0.6524999737739563 -0.4878999888896942 -0.2312999963760376 0.84170001745224
          -0.45329999923706055 -0.32019999623298645 0.8317999839782715 -0.45159998536109924 -0.3181999921798706 0.8335000276565552
          0.6158000230789185 0.24330000579357147 -0.7494000196456909 0.583299994468689 0.18940000236034393 -0.7897999882698059
          0.5450999736785889 0.2678999900817871 -0.7943999767303467 0.8654999732971191 0.08470000326633453 0.4936999976634979
          0.8751000165939331 0.1881999969482422 0.4458000063896179 0.9257000088691711 0.15800000727176666 0.34369999170303345
          -0.7268999814987183 0.2799000144004822 -0.6270999908447266 -0.7422999739646912 0.38589999079704285 -0.5479000210762024
          -0.7279000282287598 0.2948000133037567 -0.6190999746322632 -0.6794000267982483 0.07169999927282333 0.7303000092506409
          -0.7545999884605408 0.03530000150203705 0.6553000211715698 -0.7477999925613403 0.0017999999690800905 0.6639000177383423
          -0.2524000108242035 -0.17000000178813934 -0.9526000022888184 -0.15060000121593475 -0.12070000171661377 -0.9811999797821045
          -0.1525000035762787 -0.08720000088214874 -0.9843999743461609 -0.4943999946117401 -0.37619999051094055 -0.7835999727249146
          -0.23070000112056732 -0.2143000066280365 -0.9491000175476074 -0.33180001378059387 -0.36070001125335693 -0.8716999888420105
          0.3774999976158142 -0.10620000213384628 -0.9199000000953674 0.3630000054836273 -0.048700001090765 -0.9304999709129333
          0.42480000853538513 -0.08009999990463257 -0.9017999768257141 0.17219999432563782 -0.9801999926567078 0.09809999912977219
          -0.027499999850988388 -0.9970999956130981 0.07119999825954437 0.16619999706745148 -0.9861000180244446 0.0006000000284984708
          -0.6342999935150146 -0.6614999771118164 -0.4000999927520752 -0.7088000178337097 -0.5073000192642212 -0.490200012922287
          -0.6955000162124634 -0.6583999991416931 -0.2874999940395355 0.777999997138977 0.04659999907016754 -0.6266000270843506
          0.8476999998092651 -0.0763000026345253 -0.5249000191688538 0.8176000118255615 0.010700000450015068 -0.5756999850273132
          0.7411999702453613 -0.21690000593662262 0.6352999806404114 0.892300009727478 0.07909999787807465 0.444599986076355
          0.8154000043869019 0.10830000042915344 0.5687000155448914 -0.08089999854564667 -0.9348000288009644 0.3458000123500824
          -0.22020000219345093 -0.878000020980835 0.42500001192092896 -0.12680000066757202 -0.8295000195503235 0.5439000129699707
          -0.42730000615119934 0.40450000762939453 0.8086000084877014 -0.16500000655651093 -0.06400000303983688 0.9842000007629395
          -0.5507000088691711 -0.7652000188827515 0.33340001106262207 0.1695999950170517 0.8084999918937683 0.5634999871253967
          0.666100025177002 0.7035999894142151 0.24740000069141388 0.34619998931884766 0.3391000032424927 0.8747000098228455
          0.40700000524520874 0.2223999947309494 0.8859000205993652 0.4036000072956085 0.20919999480247498 0.8906999826431274
          0.4805999994277954 0.16820000112056732 0.8607000112533569 0.09730000048875809 0.049300000071525574 0.9940000176429749
          0.12960000336170197 0.001500000013038516 0.991599977016449 0.06159999966621399 0.02979999966919422 0.9976999759674072
          0.3434999883174896 -0.21739999949932098 -0.9136000275611877 0.31139999628067017 -0.2517000138759613 -0.9162999987602234
          0.40959998965263367 -0.21480000019073486 -0.8866000175476074 0.24210000038146973 -0.43059998750686646 -0.8694999814033508
          0.3059000074863434 -0.4212999939918518 -0.8537999987602234 0.3246999979019165 -0.4154999852180481 -0.8496999740600586
          -0.5217000246047974 -0.10369999706745148 -0.8468000292778015 -0.6439999938011169 0.006099999882280827 -0.7649999856948853
          -0.6496000289916992 -0.06750000268220901 -0.7573000192642212 -0.9496999979019165 -0.10019999742507935 -0.29670000076293945
          -0.9648000001907349 0.08160000294446945 -0.2500999867916107 -0.9794999957084656 0.1889999955892563 -0.06920000165700912
          -0.10540000349283218 -0.9750000238418579 -0.19580000638961792 -0.32100000977516174 -0.9204000234603882 -0.22310000658035278
          -0.18639999628067017 -0.9595000147819519 -0.210999995470047 0.13259999454021454 0.019700000062584877 0.9909999966621399
          0.09000000357627869 -0.010700000450015068 0.9958999752998352 -0.01640000008046627 0.0052999998442828655 0.9998999834060669
          0.8827000260353088 0.4643000066280365 0.0722000002861023 0.8921999931335449 0.42410001158714294 0.15530000627040863
          0.9193999767303467 0.3725000023841858 0.12610000371932983 0.027400000020861626 0.9994999766349792 -0.016699999570846558
          0.03689999878406525 0.9980999827384949 -0.050200000405311584 0.02539999969303608 0.9997000098228455 0.002199999988079071
          -0.3021000027656555 0.9039999842643738 -0.30239999294281006 -0.4131999909877777 0.9082000255584717 -0.06689999997615814
          -0.23229999840259552 0.8942999839782715 -0.3824000060558319 0.6079000234603882 0.3183000087738037 -0.727400004863739
          0.5767999887466431 0.4406999945640564 -0.6879000067710876 0.7032999992370605 0.43389999866485596 -0.5630999803543091
          0.2935999929904938 0.1200999990105629 0.9484000205993652 0.15539999306201935 -0.0989999994635582 0.9829000234603882
          0.18209999799728394 -0.13079999387264252 0.9745000004768372 0.7595000267028809 0.2980000078678131 0.5781999826431274
          0.96670001745224 0.1941000074148178 -0.16689999401569366 0.8242999911308289 -0.3319000005722046 -0.4587000012397766
          -0.4171999990940094 0.050200000405311584 0.9074000120162964 -0.4361000061035156 0.07810000330209732 0.8964999914169312
          -0.3984000086784363 0.08699999749660492 0.913100004196167 0.017400000244379044 0.4916999936103821 0.8705999851226807
          -0.06030000001192093 0.5375999808311462 0.8410999774932861 -0.024700000882148743 0.48429998755455017 0.8744999766349792
          -0.6144000291824341 0.08299999684095383 0.784600019454956 -0.6657999753952026 0.03500000014901161 0.7452999949455261
          -0.6847000122070312 0.07689999788999557 0.7246999740600586 -0.9408000111579895 0.14869999885559082 0.30469998717308044
          -0.9785000085830688 0.14390000700950623 0.14810000360012054 -0.9564999938011169 0.1525000035762787 0.24869999289512634
          0.48510000109672546 -0.21610000729560852 -0.8474000096321106 0.40299999713897705 -0.35920000076293945 -0.84170001745224
          0.26600000262260437 -0.305400013923645 -0.9143000245094299 0.8952000141143799 -0.11789999902248383 -0.42980000376701355
          0.8934000134468079 -0.16580000519752502 -0.41760000586509705 0.9330000281333923 -0.11620000004768372 -0.34060001373291016
          0.9627000093460083 -0.19210000336170197 0.19050000607967377 0.9686999917030334 -0.15150000154972076 0.19670000672340393
          0.9797000288963318 -0.09939999878406525 0.1738000065088272 0.27730000019073486 0.016100000590085983 0.9606000185012817
          0.7893000245094299 0.25049999356269836 -0.5605000257492065 0.8234999775886536 0.31779998540878296 -0.4699000120162964
          0.8276000022888184 0.24220000207424164 -0.5063999891281128 0.7067000269889832 -0.4787999987602234 -0.5209000110626221
          0.7487999796867371 -0.4844000041484833 -0.45249998569488525 0.7754999995231628 -0.439300000667572 -0.45339998602867126
          -0.10689999908208847 -0.6801000237464905 0.7253000140190125 -0.18610000610351562 -0.6550999879837036 0.7322999835014343
          -0.15680000185966492 -0.736299991607666 0.6582000255584717 -0.8934999704360962 0.09380000084638596 0.4392000138759613
          -0.9222999811172485 0.2662999927997589 0.2800999879837036 -0.8917999863624573 -0.011500000022351742 0.4521999955177307
          0.4009999930858612 -0.429500013589859 -0.8090999722480774 0.5950999855995178 -0.43700000643730164 -0.6743999719619751
          0.6478000283241272 -0.4311000108718872 -0.6280999779701233 -0.9879000186920166 -0.12759999930858612 0.08869999647140503
          -0.9812999963760376 -0.11900000274181366 0.15150000154972076 -0.9848999977111816 -0.13189999759197235 0.11249999701976776
          -0.8436999917030334 -0.009700000286102295 -0.5367000102996826 -0.8048999905586243 -0.039500001817941666 -0.592199981212616
          -0.8155999779701233 -0.0754999965429306 -0.5735999941825867 0.9883999824523926 0.11559999734163284 0.09870000183582306
          0.9912999868392944 0.12439999729394913 0.043699998408555984 0.9934999942779541 0.014299999922513962 0.1128000020980835
          0.32170000672340393 -0.08240000158548355 -0.9431999921798706 0.2874999940395355 -0.13529999554157257 -0.948199987411499
          0.31470000743865967 -0.13590000569820404 -0.9394000172615051 -0.4797999858856201 0.8367000222206116 0.2639999985694885
          -0.666100025177002 0.7242000102996826 0.17829999327659607 -0.6035000085830688 0.792900025844574 0.08429999649524689
          0.0340999998152256 -0.09449999779462814 0.9948999881744385 0.0272000003606081 -0.10899999737739563 0.9937000274658203
          0.06210000067949295 -0.12939999997615814 0.9896000027656555 -0.7257999777793884 0.038100000470876694 -0.6868000030517578
          -0.6819999814033508 -0.1598999947309494 -0.7135999798774719 -0.36469998955726624 -0.02019999921321869 -0.930899977684021
          -0.9921000003814697 0.07970000058412552 0.0966000035405159 -0.9901000261306763 0.051600001752376556 0.13050000369548798
          -0.9807999730110168 0.07940000295639038 0.17820000648498535 -0.46309998631477356 0.8781999945640564 0.11940000206232071
          -0.5091000199317932 0.8514999747276306 0.1257999986410141 -0.4966000020503998 0.8593000173568726 -0.12280000001192093
          -0.009100000374019146 0.9018999934196472 -0.4318999946117401 0.10570000112056732 0.9344000220298767 -0.3402999937534332
          0.19629999995231628 0.8675000071525574 -0.4571000039577484 0.9872999787330627 0.07050000131130219 0.14229999482631683
          0.993399977684021 0.03759999945759773 0.10790000110864639 0.965499997138977 -0.044599998742341995 0.2565999925136566
          -0.4018000066280365 0.17900000512599945 0.8981000185012817 -0.4262000024318695 0.17409999668598175 0.8877000212669373
          -0.45989999175071716 0.15839999914169312 0.8737000226974487 -0.7253000140190125 -0.07599999755620956 -0.6841999888420105
          -0.8823999762535095 -0.08829999715089798 -0.46219998598098755 -0.8537999987602234 0.18199999630451202 -0.4876999855041504
          -0.43459999561309814 0.4065000116825104 0.8036999702453613 -0.49799999594688416 0.391400009393692 0.7738000154495239
          -0.5078999996185303 0.3693000078201294 0.7781999707221985 0.8087000250816345 -0.06360000371932983 -0.5848000049591064
          0.7294999957084656 0.05849999934434891 -0.6814000010490417 0.857200026512146 0.09480000287294388 -0.5062000155448914
          -0.19359999895095825 -0.12600000202655792 -0.9728999733924866 -0.05620000138878822 -0.050700001418590546 -0.9970999956130981
          -0.09740000218153 0.0031999999191612005 -0.995199978351593 0.44209998846054077 0.13699999451637268 0.8865000009536743
          0.5734999775886536 0.12630000710487366 0.8094000220298767 0.33090001344680786 0.13539999723434448 0.933899998664856
          -0.9078999757766724 -0.01209999993443489 0.4189999997615814 -0.8871999979019165 0.012400000356137753 0.4611999988555908
          -0.8551999926567078 0.011599999852478504 0.5181000232696533 -0.357699990272522 -0.05299999937415123 -0.9322999715805054
          -0.32030001282691956 0.060499999672174454 -0.9453999996185303 -0.23690000176429749 0.058800000697374344 -0.9696999788284302
          -0.39410001039505005 -0.4205000102519989 -0.8172000050544739 -0.3434000015258789 -0.3878999948501587 -0.8553000092506409
          -0.4830000102519989 -0.3573000133037567 -0.7993999719619751 0.8205000162124634 -0.18299999833106995 0.5414999723434448
          0.8925999999046326 -0.05689999833703041 0.4472000002861023 0.8210999965667725 -0.18359999358654022 0.5404000282287598
          -0.5235000252723694 -0.8465999960899353 0.09610000252723694 -0.321399986743927 -0.9469000101089478 0.012500000186264515
          -0.39160001277923584 -0.9157999753952026 -0.08889999985694885 0.7372000217437744 -0.19349999725818634 -0.6473000049591064
          0.6367999911308289 -0.35089999437332153 -0.6865000128746033 0.7796000242233276 -0.2515000104904175 -0.5735999941825867
          0.7185999751091003 -0.2078000009059906 0.6636999845504761 0.7053999900817871 -0.22579999268054962 0.6718999743461609
          0.7070000171661377 -0.22259999811649323 0.6711999773979187 -0.8313000202178955 -0.21619999408721924 -0.5120000243186951
          -0.8366000056266785 -0.25450000166893005 -0.48510000109672546 -0.7825000286102295 -0.28929999470710754 -0.5514000058174133
          -0.9413999915122986 -0.21850000321865082 0.25679999589920044 -0.8564000129699707 -0.4075999855995178 0.31679999828338623
          -0.8834999799728394 -0.4602000117301941 -0.08699999749660492 -0.6894999742507935 0.24469999969005585 0.6816999912261963
          -0.588699996471405 0.1981000006198883 0.7836999893188477 -0.6096000075340271 0.23569999635219574 0.7567999958992004
          0.9207000136375427 0.16930000483989716 0.3515999913215637 0.9800000190734863 0.08349999785423279 0.18039999902248383
          0.9818000197410583 0.1006999984383583 0.16110000014305115 -0.8748999834060669 0.48260000348091125 0.0414000004529953
          -0.7682999968528748 0.6401000022888184 0.0031999999191612005 -0.7670000195503235 0.5383999943733215 0.3490999937057495
          0.7204999923706055 -0.1574999988079071 -0.6753000020980835 0.8629000186920166 -0.12800000607967377 -0.4887999892234802
          0.48910000920295715 -0.08160000294446945 -0.868399977684021 0.02329999953508377 -0.9797999858856201 0.19840000569820404
          -0.13660000264644623 -0.989300012588501 -0.051500000059604645 -0.3463999927043915 -0.9380999803543091 -0.0007999999797903001
          -0.5633999705314636 -0.8252000212669373 0.03959999978542328 -0.548799991607666 -0.8317000269889832 0.08410000056028366
          0.991599977016449 0.09239999949932098 0.09030000120401382 0.9975000023841858 0.07000000029802322 0.007199999876320362
          0.9968000054359436 0.04899999871850014 0.06360000371932983 0.4244000017642975 0.15369999408721924 0.892300009727478
          0.4431000053882599 0.19609999656677246 0.8748000264167786 0.5698999762535095 0.13989999890327454 0.8097000122070312
          -0.2272000014781952 -0.9732000231742859 0.035599999129772186 0.06069999933242798 -0.9909999966621399 0.11890000104904175
          -0.02410000003874302 -0.9995999932289124 0.011599999852478504 0.1745000034570694 -0.9801999926567078 -0.093299999833107
          0.15710000693798065 -0.9743000268936157 -0.16140000522136688 0.14910000562667847 -0.9872000217437744 -0.05620000138878822
          -0.12790000438690186 -0.6377000212669373 -0.7595999836921692 -0.17900000512599945 -0.9695000052452087 -0.16760000586509705
          0.31290000677108765 -0.3027999997138977 -0.9002000093460083 -0.21850000321865082 -0.4262000024318695 0.8777999877929688
          -0.4375999867916107 -0.3052000105381012 0.84579998254776 -0.17919999361038208 -0.5374000072479248 0.8241000175476074
          -0.4544000029563904 -0.6036999821662903 -0.6549999713897705 -0.35600000619888306 -0.6050999760627747 -0.7121000289916992
          -0.6474000215530396 -0.4722999930381775 -0.5982000231742859 0.13120000064373016 -0.7369999885559082 0.663100004196167
          0.3181999921798706 -0.6672000288963318 0.6735000014305115 0.37220001220703125 -0.49970000982284546 0.7821000218391418
          -0.9769999980926514 0.05209999904036522 0.2070000022649765 -0.9973999857902527 -0.012500000186264515 0.07119999825954437
          -0.98580002784729 0.030700000002980232 0.16519999504089355 -0.3871000111103058 -0.1656000018119812 -0.9070000052452087
          -0.43709999322891235 -0.20100000500679016 -0.8766999840736389 -0.4350999891757965 -0.20239999890327454 -0.8773000240325928
          0.9825000166893005 -0.07360000163316727 -0.17100000381469727 0.9581000208854675 -0.05660000070929527 -0.28060001134872437
          0.9624000191688538 -0.10779999941587448 -0.2492000013589859 0.6464999914169312 0.20600000023841858 0.734499990940094
          0.7626000046730042 0.18209999799728394 0.6207000017166138 0.6539999842643738 0.16769999265670776 0.7376999855041504
          -0.07540000230073929 -0.1143999993801117 -0.9905999898910522 0.14270000159740448 -0.08079999685287476 -0.9865000247955322
          -0.2273000031709671 -0.07429999858140945 -0.9710000157356262 0.6686999797821045 -0.16369999945163727 -0.7253000140190125
          0.6089000105857849 -0.26159998774528503 -0.7488999962806702 0.6152999997138977 -0.18770000338554382 -0.7656000256538391
          -0.7235000133514404 0.18440000712871552 0.6651999950408936 -0.7185999751091003 0.2214999943971634 0.6592000126838684
          -0.6154000163078308 0.23520000278949738 0.7523000240325928 -0.6481000185012817 0.19699999690055847 0.7355999946594238
          -0.6657999753952026 0.14910000562667847 0.7311000227928162 -0.5958999991416931 0.16259999573230743 0.7864000201225281
          -0.2896000146865845 -0.10499999672174454 -0.9513999819755554 -0.3021000027656555 -0.08340000361204147 -0.9495999813079834
          -0.43459999561309814 -0.06360000371932983 -0.8984000086784363 0.3434999883174896 -0.29179999232292175 -0.8927000164985657
          0.33970001339912415 -0.27399998903274536 -0.8996999859809875 0.2549000084400177 -0.29249998927116394 -0.9217000007629395
          0.45820000767707825 -0.7190999984741211 -0.5224000215530396 0.2190999984741211 -0.9176999926567078 -0.3314000070095062
          0.2743000090122223 -0.5889000296592712 -0.760200023651123 -0.004100000020116568 -0.44830000400543213 -0.8938999772071838
          -0.13279999792575836 -0.5081999897956848 -0.8508999943733215 0.009700000286102295 -0.5748999714851379 -0.8181999921798706
          0.30169999599456787 -0.16750000417232513 0.9386000037193298 0.29910001158714294 -0.17900000512599945 0.9373000264167786
          0.2703000009059906 -0.15800000727176666 0.9496999979019165 0.7445999979972839 -0.4724999964237213 0.4715000092983246
          0.7228000164031982 -0.42640000581741333 0.5437999963760376 0.7821000218391418 -0.4083000123500824 0.4706999957561493
          0.414000004529953 0.3946000039577484 -0.8202999830245972 0.42489999532699585 0.5670999884605408 -0.7056000232696533
          0.29280000925064087 0.5353000164031982 -0.7922999858856201 -0.5217000246047974 0.1808999925851822 -0.8337000012397766
          -0.436599999666214 0.27639999985694885 -0.8561999797821045 -0.32670000195503235 0.2418999969959259 -0.9136000275611877
          0.03099999949336052 0.46630001068115234 0.8841000199317932 -0.06379999965429306 0.4702000021934509 0.8802000284194946
          -0.0406000018119812 0.45500001311302185 0.8895999789237976 -0.3871000111103058 0.32839998602867126 0.8615999817848206
          -0.3456999957561493 0.4287000000476837 0.8346999883651733 -0.29319998621940613 0.44269999861717224 0.8474000096321106
          -0.901199996471405 -0.1923999935388565 -0.38839998841285706 -0.798799991607666 -0.2231999933719635 -0.5586000084877014
          -0.8068000078201294 -0.39899998903274536 -0.4359000027179718 -0.7696999907493591 0.4936000108718872 -0.4047999978065491
          -0.23479999601840973 0.2531999945640564 -0.9384999871253967 -0.7544000148773193 0.5288000106811523 -0.3889999985694885
          0.3160000145435333 -0.0071000000461936 -0.9487000107765198 0.3102000057697296 -0.1678999960422516 -0.935699999332428
          0.24580000340938568 -0.08780000358819962 -0.9653000235557556 0.6355999708175659 -0.09589999914169312 -0.7660999894142151
          0.24899999797344208 -0.46560001373291016 -0.8492000102996826 0.4244000017642975 -0.4472000002861023 -0.7872999906539917
          -0.053700000047683716 0.5446000099182129 0.8370000123977661 -0.021199999377131462 0.6365000009536743 0.7710000276565552
          0.052000001072883606 0.6003999710083008 0.7979999780654907 0.3497999906539917 0.41670000553131104 0.8391000032424927
          0.1670999974012375 0.2919999957084656 0.9416999816894531 0.1898999959230423 0.4011000096797943 0.8962000012397766
          -0.21250000596046448 -0.013299999758601189 -0.9771000146865845 -0.08649999648332596 -0.46950000524520874 -0.8787000179290771
          0.21529999375343323 -0.3149000108242035 -0.9243999719619751 -0.5770000219345093 0.17319999635219574 -0.7982000112533569
          -0.5095000267028809 0.1509000062942505 -0.847100019454956 -0.6162999868392944 0.13449999690055847 -0.7759000062942505
          -0.14550000429153442 0.7432000041007996 0.6531000137329102 -0.21639999747276306 0.6097000241279602 0.7626000046730042
          -0.5884000062942505 0.6175000071525574 0.5220000147819519 0.5325999855995178 0.17219999432563782 0.8287000060081482
          -0.0066999997943639755 0.10170000046491623 0.9947999715805054 0.2483000010251999 0.0723000019788742 0.9660000205039978
          0.5891000032424927 0.36079999804496765 -0.7231000065803528 0.5859000086784363 -0.16949999332427979 -0.7924000024795532
          0.38440001010894775 0.31790000200271606 -0.8666999936103821 0.31850001215934753 0.6007000207901001 -0.733299970626831
          0.11389999836683273 0.4691999852657318 -0.8756999969482422 0.39489999413490295 0.49709999561309814 -0.772599995136261
          -0.006399999838322401 0.6328999996185303 0.7742000222206116 -0.5175999999046326 0.3986000120639801 0.757099986076355
          -0.6255999803543091 0.7799000144004822 0.020099999383091927 0.48019999265670776 -0.7240999937057495 0.4950999915599823
          0.26919999718666077 -0.7477999925613403 0.6068999767303467 0.19089999794960022 -0.968500018119812 0.15970000624656677
          0.5813999772071838 0.03310000151395798 0.8129000067710876 0.5835000276565552 0.03799999877810478 0.8112000226974487