<?xml version="1.0"?>
<VTKFile type="PolyData" version="0.1" byte_order="LittleEndian" header_type="UInt32" compressor="vtkZLibDataCompressor">
  <PolyData>
    <FieldData>
      <Array type="String" Name="MaterialNames" NumberOfTuples="1" format="ascii">
        109 97 116 101 114 105 97 108 95 48 0
      </Array>
      <Array type="String" Name="MaterialLibraries" NumberOfTuples="1" format="ascii">
        109 97 116 101 114 105 97 108 46 109 116 108 0
      </Array>
    </FieldData>
    <Piece NumberOfPoints="8064" NumberOfVerts="0" NumberOfLines="0" NumberOfStrips="0" NumberOfPolys="16471">
      <PointData Normals="Normals">
        <DataArray type="Float32" Name="Normals" NumberOfComponents="3" format="ascii" RangeMin="0.9998924753073913" RangeMax="1.0000621129286567">
          -0.9690999984741211 -0.13359999656677246 -0.20749999582767487 -0.6287000179290771 -0.7264999747276306 -0.2775000035762787
          -0.7605999708175659 -0.6312999725341797 0.15119999647140503 -0.7218000292778015 -0.6917999982833862 -0.017100000753998756
          -0.6728000044822693 -0.6764000058174133 0.2996000051498413 -0.9473000168800354 -0.22360000014305115 0.22949999570846558
          -0.9017999768257141 -0.3625999987125397 0.23520000278949738 -0.9549999833106995 -0.2624000012874603 0.13860000669956207
          -0.6358000040054321 -0.7544000148773193 0.16339999437332153 -0.9765999913215637 -0.01730000041425228 0.21449999511241913
          -0.8371999859809875 -0.5041000247001648 0.21209999918937683 -0.4205000102519989 -0.9039999842643738 0.07670000195503235
          -0.9848999977111816 -0.03530000150203705 0.16930000483989716 -0.9979000091552734 0.04529999941587448 0.04690000042319298
          -0.979200005531311 0.06499999761581421 -0.19189999997615814 -0.2273000031709671 -0.9595000147819519 -0.1665000021457672
          -0.8169000148773193 -0.028300000354647636 -0.5759999752044678 -0.6502000093460083 -0.41269999742507935 -0.6378999948501587
          -0.7491999864578247 -0.5109999775886536 0.4214000105857849 -0.9272000193595886 -0.006899999920278788 0.3743000030517578
          -0.9053999781608582 -0.15489999949932098 0.3952000141143799 -0.876800000667572 -0.03629999980330467 0.47940000891685486
          -0.36880001425743103 -0.9172999858856201 0.14990000426769257 -0.9577999711036682 -0.02879999950528145 0.28600001335144043
          -0.954800009727478 -0.033799998462200165 0.295199990272522 -0.21610000729560852 -0.9735000133514404 -0.07509999722242355
          -0.9854000210762024 0.00989999994635582 0.17010000348091125 -0.9864000082015991 -0.0006000000284984708 0.16410000622272491
          -0.5083000063896179 -0.8604999780654907 -0.0333000011742115 -0.12890000641345978 -0.9866999983787537 -0.09849999845027924
          -0.9991000294685364 0.0210999995470047 0.037300001829862595 -0.133200004696846 -0.9653000235557556 -0.22450000047683716
          -0.9783999919891357 0.1696999967098236 -0.11789999902248383 -0.9269999861717224 0.0430000014603138 -0.3725000023841858
          -0.8691999912261963 0.07360000163316727 -0.48890000581741333 -0.08269999921321869 -0.8902000188827515 -0.4480000138282776
          -0.6714000105857849 0.00559999980032444 -0.741100013256073 -0.3580000102519989 -0.45809999108314514 -0.8136000037193298
          -0.19089999794960022 -0.8180999755859375 -0.5424000024795532 -0.8320000171661377 -0.4603999853134155 0.3095000088214874
          -0.8216999769210815 -0.4805999994277954 0.3061000108718872 -0.8988999724388123 -0.07850000262260437 0.4309999942779541
          -0.9355000257492065 -0.1762000024318695 0.30630001425743103 -0.7470999956130981 -0.6636999845504761 0.0357000008225441
          -0.4799000024795532 -0.8773000240325928 -0.00019999999494757503 -0.10419999808073044 -0.9894999861717224 -0.09960000216960907
          -0.8873000144958496 -0.02280000038444996 0.46070000529289246 -0.885200023651123 -0.34929999709129333 0.3073999881744385
          -0.19089999794960022 -0.9405999779701233 -0.2808000147342682 -0.9169999957084656 -0.052000001072883606 0.39559999108314514
          -0.4903999865055084 -0.8687999844551086 0.06840000301599503 -0.07829999923706055 -0.9933000206947327 -0.08540000021457672
          -0.9412999749183655 -0.04450000077486038 0.33469998836517334 -0.011900000274181366 -0.9836000204086304 -0.17960000038146973
          -0.9517999887466431 -0.03539999946951866 0.30469998717308044 -0.9642999768257141 -0.024800000712275505 0.2637999951839447
          0.07959999889135361 -0.9711999893188477 -0.22470000386238098 -0.9961000084877014 0.043699998408555984 0.0763000026345253
          -0.9979000091552734 0.01600000075995922 0.06289999932050705 0.03460000082850456 -0.9987000226974487 -0.03689999878406525
          -0.9801999926567078 0.05130000039935112 -0.19130000472068787 -0.8295000195503235 0.11100000143051147 -0.5472999811172485
          0.04610000178217888 -0.9621000289916992 -0.2687999904155731 -0.7466999888420105 0.13429999351501465 -0.6514000296592712
          -0.09560000151395798 -0.8546000123023987 -0.5103999972343445 -0.614799976348877 0.15129999816417694 -0.7739999890327454
          -0.48919999599456787 0.08609999716281891 -0.867900013923645 -0.4120999872684479 -0.40389999747276306 -0.8166999816894531
          -0.5473999977111816 -0.641700029373169 0.5371999740600586 -0.4142000079154968 -0.6348000168800354 0.6523000001907349
          -0.847000002861023 -0.10289999842643738 0.5216000080108643 -0.8712000250816345 -0.2881999909877777 0.39750000834465027
          -0.3903999924659729 -0.920199990272522 -0.02710000053048134 -0.9485999941825867 -0.04349999874830246 0.31349998712539673
          -0.9049000144004822 -0.29429998993873596 0.30730000138282776 -0.7760999798774719 -0.6305000185966492 0.011300000362098217
          -0.18160000443458557 -0.9423999786376953 -0.2809999883174896 -0.9781000018119812 -0.018699999898672104 0.20730000734329224
          -0.9571999907493591 -0.03779999911785126 0.28679999709129333 -0.8730000257492065 -0.42899999022483826 0.2321999967098236
          -0.6381999850273132 -0.769599974155426 0.015399999916553497 -0.9307000041007996 -0.050999999046325684 0.3621000051498413
          -0.4262999892234802 -0.8815000057220459 0.2029000073671341 -0.051600001752376556 -0.9983999729156494 0.02019999921321869
          -0.8770999908447266 -0.04430000111460686 0.4781999886035919 -0.8303999900817871 0.0006000000284984708 0.5570999979972839
          -0.9125000238418579 -0.02239999920129776 0.4083000123500824 -0.9429000020027161 -0.0015999999595806003 0.33309999108314514
          -0.9071999788284302 -0.03460000082850456 0.41920000314712524 -0.9508000016212463 -0.007499999832361937 0.30959999561309814
          -0.8956999778747559 -0.03269999846816063 0.4433000087738037 0.2703999876976013 -0.940500020980835 -0.20559999346733093
          -0.9776999950408936 -0.03280000016093254 0.20759999752044678 -0.9761999845504761 0.025200000032782555 0.21549999713897705
          -0.9764999747276306 0.020400000736117363 0.2143000066280365 0.10819999873638153 -0.9846000075340271 -0.13699999451637268
          -0.9991999864578247 0.0215000007301569 0.03269999846816063 -0.9994999766349792 0.030799999833106995 -0.002099999925121665
          -0.9799000024795532 0.031099999323487282 -0.19709999859333038 -0.031199999153614044 -0.9732999801635742 -0.2273000031709671
          -0.8859000205993652 0.029100000858306885 -0.46299999952316284 -0.08500000089406967 -0.944100022315979 -0.31859999895095825
          -0.47749999165534973 0.09749999642372131 -0.873199999332428 -0.38609999418258667 -0.7878999710083008 -0.4796999990940094
          -0.4097999930381775 0.022600000724196434 -0.911899983882904 -0.6974999904632568 -0.08749999850988388 0.7111999988555908
          -0.21299999952316284 -0.9174000024795532 0.335999995470047 -0.830299973487854 -0.02800000086426735 0.5565000176429749
          -0.8720999956130981 0.01080000028014183 0.48910000920295715 0.02239999920129776 -0.9763000011444092 -0.2151000052690506
          -0.9369000196456909 0.006399999838322401 0.3495999872684479 -0.9448000192642212 -0.01549999974668026 0.32739999890327454
          -0.9388999938964844 0.055799998342990875 0.3395000100135803 0.041600000113248825 -0.9854000210762024 -0.16519999504089355
          -0.9182000160217285 -0.031599998474121094 0.39480000734329224 -0.90420001745224 0.009700000286102295 0.4268999993801117
          -0.892300009727478 -0.06199999898672104 0.4471000134944916 0.05460000038146973 -0.9914000034332275 -0.11869999766349792
          0.16339999437332153 -0.9480000138282776 -0.2728999853134155 0.051899999380111694 -0.9699000120162964 -0.23770000040531158
          -0.9458000063896179 -0.017100000753998756 0.32420000433921814 -0.9725000262260437 -0.01679999940097332 0.2321999967098236
          0.5514000058174133 -0.781499981880188 -0.29190000891685486 0.6028000116348267 -0.7968000173568726 -0.0421999990940094
          -0.9865000247955322 -0.048700001090765 0.15610000491142273 -0.9858999848365784 -0.010999999940395355 0.16689999401569366
          0.29120001196861267 -0.9466000199317932 -0.13830000162124634 -0.9968000054359436 0.019300000742077827 -0.07699999958276749
          0.336899995803833 -0.9358999729156494 0.10260000079870224 -0.9230999946594238 0.0575999990105629 -0.38029998540878296
          0.01140000019222498 -0.9868999719619751 -0.16089999675750732 -0.7348999977111816 0.07000000029802322 -0.6746000051498413
          -0.6240000128746033 0.07639999687671661 -0.7777000069618225 -0.47769999504089355 0.07859999686479568 -0.8748999834060669
          -0.3312000036239624 -0.6746000051498413 -0.6596999764442444 -0.37049999833106995 -0.1225999966263771 -0.9207000136375427
          -0.5342000126838684 -0.08290000259876251 0.8413000106811523 -0.49059998989105225 -0.13609999418258667 0.8605999946594238
          -0.36320000886917114 -0.5094000101089478 0.7800999879837036 -0.7067000269889832 -0.012000000104308128 0.7074000239372253
          -0.6223999857902527 -0.07199999690055847 0.7793999910354614 -0.25200000405311584 -0.9664000272750854 -0.0502999983727932
          -0.8978000283241272 -0.053599998354911804 0.43709999322891235 -0.9514999985694885 -0.03009999915957451 0.3061999976634979
          0.14190000295639038 -0.9556999802589417 -0.25769999623298645 -0.9340999722480774 -0.03999999910593033 0.3546999990940094
          -0.9297000169754028 -0.051100000739097595 0.36480000615119934 -0.9142000079154968 -0.03819999843835831 0.4034999907016754
          -0.9039999842643738 0.0210999995470047 0.4269999861717224 0.2029000073671341 -0.9782000184059143 0.042899999767541885
          -0.9416999816894531 -0.04340000078082085 0.33340001106262207 0.2881999909877777 -0.9487000107765198 -0.1298999935388565
          -0.8946999907493591 -0.04479999840259552 0.44429999589920044 -0.909600019454956 -0.037300001829862595 0.4138000011444092
          0.4253999888896942 -0.8264999985694885 -0.3686999976634979 -0.9269000291824341 -0.029500000178813934 0.374099999666214
          -0.9214000105857849 -0.06499999761581421 0.3831999897956848 -0.9592999815940857 -0.04650000110268593 0.2782999873161316
          0.038600001484155655 -0.8587999939918518 -0.5109000205993652 0.2953999936580658 -0.6507999897003174 -0.699400007724762
          0.8720999956130981 -0.3508000075817108 -0.3409999907016754 0.7646999955177307 -0.027799999341368675 -0.6437000036239624
          0.6428999900817871 -0.15449999272823334 -0.7501000165939331 -0.9861000180244446 -0.001500000013038516 0.16609999537467957
          -0.9932000041007996 -0.035599999129772186 0.1103999987244606 0.9143999814987183 -0.39959999918937683 0.0640999972820282
          0.7537000179290771 -0.641700029373169 -0.14149999618530273 -0.9925000071525574 0.017999999225139618 -0.12080000340938568
          0.9825999736785889 -0.07739999890327454 -0.16859999299049377 0.9969000220298767 0.02329999953508377 -0.07519999891519547
          0.9610000252723694 -0.2728999853134155 -0.04390000179409981 0.9228000044822693 -0.10429999977350235 0.37070000171661377
          0.8827000260353088 -0.4390999972820282 0.16760000586509705 -0.9222000241279602 0.0502999983727932 -0.38339999318122864
          0.7215999960899353 -0.48899999260902405 0.49000000953674316 0.41100001335144043 -0.8690000176429749 0.275299996137619
          -0.8432000279426575 0.07460000365972519 -0.5322999954223633 -0.7734000086784363 0.06109999865293503 -0.6309999823570251
          -0.0348999984562397 -0.9984999895095825 -0.04050000011920929 -0.07280000299215317 -0.9595000147819519 -0.2720000147819519
          -0.5809999704360962 0.05139999836683273 -0.8123000264167786 -0.11460000276565552 -0.9265000224113464 -0.35830000042915344
          -0.3702000081539154 0.0868000015616417 -0.9248999953269958 -0.4016000032424927 0.050700001418590546 -0.9143999814987183
          -0.31540000438690186 0.03290000185370445 -0.9484000205993652 -0.21170000731945038 -0.5266000032424927 -0.8233000040054321
          -0.640999972820282 -0.039900001138448715 0.7664999961853027 -0.5275999903678894 -0.03550000116229057 0.8486999869346619
          -0.4903999865055084 -0.07739999890327454 0.8679999709129333 -0.36419999599456787 -0.08649999648332596 0.927299976348877
          -0.16329999268054962 -0.5231999754905701 0.8363999724388123 -0.1324000060558319 -0.9599000215530396 0.24709999561309814
          -0.15870000422000885 -0.8141999840736389 0.5583999752998352 -0.853600025177002 0.004600000102072954 0.520799994468689
          -0.704200029373169 -0.022700000554323196 0.7095999717712402 -0.7907000184059143 -0.054499998688697815 0.6097000241279602
          -0.9584000110626221 0.0066999997943639755 0.28529998660087585 -0.9478999972343445 0.01889999955892563 0.31779998540878296
          -0.09560000151395798 -0.9570000171661377 -0.27379998564720154 0.06880000233650208 -0.9143000245094299 -0.39899998903274536
          -0.9205999970436096 -0.052400000393390656 0.38690000772476196 -0.9271000027656555 -0.05660000070929527 0.37040001153945923
          0.42080000042915344 -0.8447999954223633 -0.3303999900817871 -0.9221000075340271 -0.07680000364780426 0.3790999948978424
          0.7279999852180481 -0.5756999850273132 -0.37220001220703125 -0.9228000044822693 -0.06030000001192093 0.38040000200271606
          -0.9463000297546387 -0.06109999865293503 0.3172999918460846 0.9513999819755554 -0.044599998742341995 -0.30469998717308044
          0.8586999773979187 -0.3393000066280365 -0.3840000033378601 -0.9537000060081482 -0.031099999323487282 0.29910001158714294
          -0.9483000040054321 0.015799999237060547 0.31679999828338623 0.9077000021934509 -0.41440001130104065 -0.06599999964237213
          0.7304999828338623 -0.43130001425743103 -0.5293999910354614 -0.964900016784668 -0.04699999839067459 0.2583000063896179
          0.7634000182151794 0.05570000037550926 -0.6434999704360962 0.9757000207901001 -0.12860000133514404 -0.17720000445842743
          -0.9850000143051147 -0.044199999421834946 0.16689999401569366 0.9053999781608582 -0.06520000100135803 -0.4196000099182129
          -0.9954000115394592 -0.033900000154972076 0.08959999680519104 0.9688000082969666 0.028999999165534973 -0.2459000051021576
          0.9998000264167786 -0.002300000051036477 0.019500000402331352 0.9948999881744385 -0.08749999850988388 -0.05050000175833702
          0.9879000186920166 0.0738999992609024 0.13590000569820404 0.9940999746322632 0.07150000333786011 -0.08100000023841858
          -0.9998999834060669 0.009999999776482582 0.0012000000569969416 0.9340999722480774 -0.052400000393390656 0.3531999886035919
          -0.9918000102043152 -0.03920000046491623 -0.121799997985363 0.7218999862670898 -0.11969999969005585 0.6815000176429749
          0.47279998660087585 -0.34630000591278076 0.8101999759674072 0.23070000112056732 -0.5794000029563904 0.7817000150680542
          -0.7332000136375427 0.04659999907016754 -0.6783000230789185 0.057999998331069946 -0.6948000192642212 0.7167999744415283
          -0.014700000174343586 -0.9990000128746033 0.041099999099969864 -0.5914999842643738 0.05169999971985817 -0.8046000003814697
          -0.1136000007390976 -0.9463000297546387 -0.3025999963283539 -0.5030999779701233 0.043699998408555984 -0.863099992275238
          -0.131400004029274 -0.9459999799728394 -0.296099990606308 -0.30000001192092896 -0.5429999828338623 -0.7843000292778015
          -0.23909999430179596 -0.13860000669956207 0.9610000252723694 -0.6158000230789185 -0.029600000008940697 0.7872999906539917
          -0.10689999908208847 -0.9599999785423279 0.2587999999523163 -0.8725000023841858 0.10649999976158142 0.47690001130104065
          -0.598800003528595 -0.02290000021457672 0.800599992275238 -0.863099992275238 -0.04500000178813934 0.503000020980835
          -0.06750000268220901 -0.9955999851226807 -0.06400000303983688 -0.9771999716758728 0.1039000004529953 0.18520000576972961
          -0.9739999771118164 -0.014600000344216824 0.22599999606609344 -0.06530000269412994 -0.895799994468689 -0.43959999084472656
          -0.9301000237464905 0.006599999964237213 0.36719998717308044 0.2337000072002411 -0.6794000267982483 -0.6955000162124634
          -0.9079999923706055 -0.03720000013709068 0.4172999858856201 -0.9308000206947327 -0.02500000037252903 0.36480000615119934
          0.3880000114440918 -0.8414000272750854 -0.37599998712539673 -0.9154999852180481 -0.0632999986410141 0.39719998836517334
          -0.8919000029563904 -0.027899999171495438 0.4512999951839447 0.7590000033378601 -0.4779999852180481 -0.44200000166893005
          0.733299970626831 -0.3156999945640564 -0.6019999980926514 -0.8885999917984009 -0.10000000149011612 0.44749999046325684
          0.9284999966621399 -0.06509999930858612 -0.36559998989105225 0.9207000136375427 0.050700001418590546 -0.3869999945163727
          -0.9477999806404114 -0.01679999940097332 0.31850001215934753 -0.9380000233650208 -0.039000000804662704 0.3443000018596649
          0.9333999752998352 -0.03009999915957451 -0.35740000009536743 0.9024999737739563 -0.15809999406337738 -0.40059998631477356
          -0.9552000164985657 -0.045899998396635056 0.2924000024795532 0.9846000075340271 -0.0027000000700354576 -0.1745000034570694
          0.9750000238418579 0.032999999821186066 -0.21969999372959137 0.9649999737739563 -0.029999999329447746 -0.26030001044273376
          -0.9168000221252441 -0.08839999884366989 0.38940000534057617 -0.9354000091552734 -0.06390000134706497 0.34779998660087585
          -0.9521999955177307 -0.09700000286102295 0.2896000146865845 0.9610000252723694 0.13269999623298645 -0.24269999563694
          0.9553999900817871 0.08579999953508377 -0.2824000120162964 0.9322999715805054 -0.03849999979138374 -0.359499990940094
          0.9746000170707703 0.10300000011920929 -0.19900000095367432 0.8953999876976013 -0.05180000141263008 -0.4422000050544739
          0.8730000257492065 -0.10670000314712524 -0.4758000075817108 0.9171000123023987 0.07829999923706055 -0.39089998602867126
          0.7997000217437744 0.010700000450015068 -0.6003000140190125 -0.988099992275238 -0.040300000458955765 0.14820000529289246
          -0.9958999752998352 0.029400000348687172 0.0851999968290329 0.8442000150680542 0.035999998450279236 -0.5347999930381775
          -0.9962999820709229 -0.05660000070929527 0.06469999998807907 0.9855999946594238 0.07580000162124634 -0.1509999930858612
          0.9006999731063843 0.13860000669956207 -0.4115999937057495 0.9948999881744385 -0.0494999997317791 -0.08760000020265579
          -0.9994999766349792 -0.027300000190734863 0.014499999582767487 0.9977999925613403 0.01600000075995922 0.06360000371932983
          0.949400007724762 0.012900000438094139 0.31360000371932983 0.9243999719619751 -0.06629999727010727 0.37549999356269836
          -0.9332000017166138 0.011800000444054604 -0.35910001397132874 0.76419997215271 -0.031099999323487282 0.6442999839782715
          -0.9054999947547913 -0.030700000002980232 -0.42309999465942383 0.4851999878883362 -0.039900001138448715 0.8733999729156494
          -0.7760999798774719 0.007699999958276749 -0.6305000185966492 0.24969999492168427 -0.1907999962568283 0.9492999911308289
          0.13420000672340393 -0.9904999732971191 0.027899999171495438 -0.6291000247001648 0.06480000168085098 -0.7746000289916992
          -0.5310999751091003 0.052799999713897705 -0.8456000089645386 -0.08829999715089798 -0.9735999703407288 -0.21050000190734863
          -0.42890000343322754 0.052799999713897705 -0.9017999768257141 -0.35359999537467957 0.09160000085830688 -0.930899977684021
          -0.2551000118255615 -0.8885999917984009 -0.38109999895095825 -0.2856999933719635 0.06239999830722809 -0.9563000202178955
          -0.20880000293254852 0.01940000057220459 -0.9778000116348267 -0.33869999647140503 -0.26899999380111694 -0.9016000032424927
          -0.49779999256134033 -0.06159999966621399 0.8651000261306763 -0.4507000148296356 -0.05849999934434891 0.8906999826431274
          -0.16449999809265137 -0.18809999525547028 0.9682999849319458 -0.07180000096559525 -0.10570000112056732 0.9918000102043152
          -0.01549999974668026 -0.40630000829696655 0.9136000275611877 -0.0794999971985817 -0.8166999816894531 0.5715000033378601
          -0.6086000204086304 0.004399999976158142 0.79339998960495 -0.4844000041484833 -0.0746999979019165 0.8715999722480774
          -0.03750000149011612 -0.977400004863739 0.20800000429153442 -0.9172999858856201 0.24269999563694 0.3156999945640564
          -0.7994999885559082 0.03189999982714653 0.5997999906539917 -0.5996999740600586 0.02459999918937683 0.7998999953269958
          -0.6226999759674072 -0.001500000013038516 0.7824000120162964 -0.8991000056266785 -0.03849999979138374 0.4359999895095825
          -0.8982999920845032 -0.04619999974966049 0.4368000030517578 -0.05770000070333481 -0.9592000246047974 -0.2766000032424927
          -0.9021999835968018 -0.0723000019788742 0.4250999987125397 0.0010000000474974513 -0.6035000085830688 -0.7972999811172485
          -0.07569999992847443 -0.8447999954223633 -0.529699981212616 -0.925599992275238 -0.09939999878406525 0.365200012922287
          -0.8859999775886536 -0.03779999911785126 0.4620000123977661 -0.9139000177383423 -0.02850000001490116 0.4047999978065491
          0.7443000078201294 -0.0272000003606081 -0.6672000288963318 0.5878999829292297 0.1062999963760376 -0.8019000291824341
          0.43130001425743103 -0.2393999993801117 -0.8697999715805054 -0.9111999869346619 -0.05820000171661377 0.40779998898506165
          -0.916700005531311 -0.08669999986886978 0.38999998569488525 0.8977000117301941 0.020500000566244125 -0.4401000142097473
          0.885699987411499 0.08160000294446945 -0.4569999873638153 -0.9172000288963318 -0.03840000182390213 0.39660000801086426
          -0.9232000112533569 -0.03819999843835831 0.3824999928474426 0.9589999914169312 0.05339999869465828 -0.27810001373291016
          0.9398999810218811 0.05999999865889549 -0.3361000120639801 0.9157999753952026 0.08630000054836273 -0.3921999931335449
          0.9664000272750854 0.0723000019788742 -0.24650000035762787 0.9505000114440918 0.20440000295639038 -0.23399999737739563
          -0.9539999961853027 -0.07259999960660934 0.2906999886035919 0.9417999982833862 0.11069999635219574 -0.3172999918460846
          0.9973000288009644 0.0714000016450882 -0.013199999928474426 -0.9884999990463257 -0.08380000293254852 0.12600000202655792
          -0.9890999794006348 -0.07620000094175339 0.125900000333786 0.9312999844551086 0.03620000183582306 -0.36239999532699585
          0.8938999772071838 0.24860000610351562 -0.37279999256134033 0.9380000233650208 0.041099999099969864 -0.3441999852657318
          0.9103999733924866 -0.15479999780654907 -0.38359999656677246 -0.982699990272522 -0.07069999724626541 0.17100000381469727
          0.9725000262260437 -0.06019999831914902 -0.2249000072479248 -0.9955000281333923 -0.06379999965429306 0.06949999928474426
          0.989799976348877 -0.13860000669956207 0.03220000118017197 -0.9977999925613403 -0.05559999868273735 -0.03610000014305115
          -0.98580002784729 -0.04529999941587448 -0.16169999539852142 -0.9936000108718872 0.012799999676644802 -0.11219999939203262
          0.9517999887466431 -0.10090000182390213 0.2897999882698059 0.8100000023841858 -0.027300000190734863 0.5857999920845032
          -0.9429000020027161 -0.05739999935030937 -0.3280999958515167 -0.9345999956130981 0.015200000256299973 -0.35519999265670776
          0.5522000193595886 0.004900000058114529 0.8337000012397766 0.48820000886917114 0.005799999926239252 0.8726999759674072
          -0.8454999923706055 -0.004900000058114529 -0.5339000225067139 -0.738099992275238 -0.047200001776218414 -0.6730999946594238
          -0.7088000178337097 -0.041999999433755875 -0.704200029373169 0.23960000276565552 -0.048700001090765 0.9696000218391418
          0.11029999703168869 -0.6044999957084656 0.7889000177383423 -0.030799999833106995 -0.9986000061035156 0.04360000044107437
          -0.66839998960495 0.053199999034404755 -0.7419000267982483 -0.5094000101089478 0.033399999141693115 -0.8597999811172485
          -0.28690001368522644 0.04320000112056732 -0.9570000171661377 -0.2912999987602234 0.07819999754428864 -0.9534000158309937
          -0.23980000615119934 0.07649999856948853 -0.9678000211715698 -0.2930000126361847 0.08110000193119049 -0.9526000022888184
          -0.2831000089645386 -0.9246000051498413 -0.2547999918460846 -0.19169999659061432 -0.04149999842047691 -0.9805999994277954
          -0.2126999944448471 -0.6184999942779541 -0.7563999891281128 -0.25099998712539673 -0.09220000356435776 0.9635999798774719
          -0.6294000148773193 -0.016699999570846558 0.7768999934196472 -0.5099999904632568 -0.05299999937415123 0.8585000038146973
          -0.43470001220703125 -0.053300000727176666 0.8989999890327454 0.09399999678134918 -0.8019000291824341 0.5899999737739563
          -0.6851999759674072 0.003800000064074993 0.7282999753952026 -0.6735000014305115 -0.017100000753998756 0.7389000058174133
          -0.7013000249862671 0.050999999046325684 0.7110000252723694 -0.814300000667572 0.004900000058114529 0.5803999900817871
          -0.8452000021934509 -0.0575999990105629 0.5313000082969666 -0.7753999829292297 -0.051899999380111694 0.6292999982833862
          -0.8644000291824341 -0.07159999758005142 0.4977000057697296 -0.8529999852180481 -0.0737999975681305 0.516700029373169
          0.8055999875068665 0.13729999959468842 -0.5763000249862671 0.3889999985694885 0.09889999777078629 -0.9158999919891357
          0.3086000084877014 0.2621999979019165 -0.9143000245094299 -0.14509999752044678 -0.5108000040054321 -0.8472999930381775
          -0.9052000045776367 -0.09969999641180038 0.41290000081062317 -0.8928999900817871 -0.11159999668598175 0.43619999289512634
          0.7972000241279602 0.14569999277591705 -0.5857999920845032 0.8765000104904175 0.12870000302791595 -0.46380001306533813
          0.09390000253915787 0.33250001072883606 -0.9383999705314636 0.057500001043081284 -0.06880000233650208 -0.9959999918937683
          -0.9307000041007996 -0.09539999812841415 0.3531000018119812 0.8435999751091003 -0.025299999862909317 -0.536300003528595
          0.8396999835968018 -0.017100000753998756 -0.5428000092506409 0.8374999761581421 0.08810000121593475 -0.5393000245094299
          0.8255000114440918 0.12600000202655792 -0.5501000285148621 0.9196000099182129 -0.011599999852478504 -0.39259999990463257
          0.8605999946594238 0.062199998646974564 -0.5054000020027161 -0.9340999722480774 -0.09950000047683716 0.34279999136924744
          -0.9036999940872192 -0.07000000029802322 0.42239999771118164 0.9628000259399414 -0.2702000141143799 -0.003000000026077032
          -0.958299994468689 -0.08569999784231186 0.27250000834465027 -0.9275000095367432 -0.08500000089406967 0.36399999260902405
          0.9086999893188477 -0.05460000038146973 -0.41370001435279846 0.90829998254776 0.06109999865293503 -0.4138999879360199
          0.8877999782562256 -0.03739999979734421 -0.4587000012397766 0.9133999943733215 0.03420000150799751 -0.40549999475479126
          -0.963100016117096 -0.10459999740123749 0.24779999256134033 0.948199987411499 0.009399999864399433 -0.3174999952316284
          -0.9776999950408936 -0.07890000194311142 0.19460000097751617 0.9496999979019165 -0.05889999866485596 -0.3073999881744385
          0.9598000049591064 -0.008799999952316284 -0.28049999475479126 0.926800012588501 0.005200000014156103 -0.37560001015663147
          -0.9983999729156494 -0.04540000110864639 0.033799998462200165 0.9948999881744385 -0.10050000250339508 0.0020000000949949026
          -0.998199999332428 -0.05220000073313713 -0.029100000858306885 0.9937999844551086 -0.10939999669790268 0.020899999886751175
          0.9926999807357788 -0.052400000393390656 0.10830000042915344 0.9872999787330627 -0.12210000306367874 0.10159999877214432
          0.8203999996185303 -0.10409999638795853 0.5622000098228455 0.8467000126838684 0.01269999984651804 0.5318999886512756
          -0.8985999822616577 -0.02370000071823597 -0.43810001015663147 0.602400004863739 -0.0357000008225441 0.7973999977111816
          0.42590001225471497 -0.035999998450279236 0.9039999842643738 -0.7289999723434448 -0.003700000001117587 -0.684499979019165
          -0.6327000260353088 0.009800000116229057 -0.7742999792098999 0.20749999582767487 -0.009100000374019146 0.9782000184059143
          0.022299999371170998 -0.7166000008583069 0.6970999836921692 0.03460000082850456 -0.9537000060081482 0.298799991607666
          -0.5187000036239624 0.025800000876188278 -0.8544999957084656 -0.3578000068664551 0.01640000008046627 -0.9336000084877014
          -0.028300000354647636 -0.9973000288009644 -0.06809999793767929 -0.3456000089645386 0.03669999912381172 -0.9376000165939331
          -0.25920000672340393 0.07569999992847443 -0.9628000259399414 -0.21960000693798065 0.0568000003695488 -0.9739000201225281