<?xml version="1.0"?>
<VTKFile type="PolyData" version="0.1" byte_order="LittleEndian" header_type="UInt32" compressor="vtkZLibDataCompressor">
  <PolyData>
    <FieldData>
      <Array type="String" Name="MaterialNames" NumberOfTuples="1" format="ascii">
        109 97 116 101 114 105 97 108 95 48 0
      </Array>
      <Array type="String" Name="MaterialLibraries" NumberOfTuples="1" format="ascii">
        109 97 116 101 114 105 97 108 46 109 116 108 0
      </Array>
    </FieldData>
    <Piece NumberOfPoints="18880" NumberOfVerts="0" NumberOfLines="0" NumberOfStrips="0" NumberOfPolys="38151">
      <PointData Normals="Normals">
        <DataArray type="Float32" Name="Normals" NumberOfComponents="3" format="ascii" RangeMin="0.9999247161477136" RangeMax="1.0000802188081093">
          -0.39399999380111694 -0.06530000269412994 0.9168000221252441 -0.5921000242233276 -0.05550000071525574 0.8040000200271606
          -0.48489999771118164 -0.06870000064373016 0.8719000220298767 0.5077999830245972 -0.1039000004529953 -0.8551999926567078
          0.5630000233650208 -0.13689999282360077 -0.8151000142097473 0.6334999799728394 -0.16220000386238098 -0.7565000057220459
          -0.9490000009536743 0.18629999458789825 -0.25450000166893005 -0.899399995803833 0.17829999327659607 -0.39899998903274536
          -0.9200000166893005 0.2160000056028366 -0.32710000872612 0.09539999812841415 -0.03920000046491623 0.994700014591217
          0.05530000105500221 -0.062199998646974564 0.9965000152587891 0.0738999992609024 -0.1005999967455864 0.9922000169754028
          0.042100001126527786 -0.15189999341964722 0.987500011920929 0.08370000123977661 -0.12049999833106995 0.9891999959945679
          0.17649999260902405 -0.05480000004172325 0.9828000068664551 -0.7067000269889832 -0.6442000269889832 -0.29260000586509705
          -0.7588000297546387 -0.628600001335144 -0.17080000042915344 -0.6794999837875366 -0.7233999967575073 -0.12240000069141388
          0.31769999861717224 -0.5841000080108643 0.7469000220298767 -0.020800000056624413 -0.8863000273704529 0.4625999927520752
          0.43860000371932983 -0.8974000215530396 0.0471000000834465 0.9032999873161316 0.326200008392334 0.27869999408721924
          0.8837000131607056 0.3476000130176544 0.313400000333786 0.8582000136375427 0.32519999146461487 0.39719998836517334
          0.9351000189781189 -0.2922999858856201 0.20020000636577606 0.9157000184059143 -0.30640000104904175 0.2599000036716461
          0.9215999841690063 -0.304500013589859 0.24079999327659607 -0.4172999858856201 0.16200000047683716 -0.8942000269889832
          -0.4131999909877777 0.2070000022649765 -0.8867999911308289 -0.46639999747276306 0.1777999997138977 -0.8665000200271606
          0.5134000182151794 -0.004100000020116568 -0.8580999970436096 0.43070000410079956 0.04340000078082085 -0.9014999866485596
          0.5248000025749207 0.007300000172108412 -0.8511999845504761 -0.34689998626708984 0.006399999838322401 -0.9379000067710876
          -0.5914999842643738 0.1185000017285347 -0.7975999712944031 -0.4397999942302704 -0.0032999999821186066 -0.8981000185012817
          0.9945999979972839 0.0843999981880188 -0.06030000001192093 0.9557999968528748 0.03189999982714653 0.2921999990940094
          0.970300018787384 0.16449999809265137 0.17759999632835388 -0.9223999977111816 0.024000000208616257 0.3855000138282776
          -0.9343000054359436 0.07500000298023224 0.3483999967575073 -0.9323999881744385 0.08259999752044678 0.35190001130104065
          -0.1923999935388565 -0.27639999985694885 -0.9416000247001648 -0.061400000005960464 -0.24490000307559967 -0.9675999879837036
          -0.2808000147342682 -0.2093999981880188 -0.9366000294685364 0.3700999915599823 -0.11509999632835388 0.9218000173568726
          0.3059999942779541 -0.07479999959468842 0.9491000175476074 0.387800008058548 -0.1242000013589859 0.9132999777793884
          0.6898000240325928 0.4828000068664551 0.5394999980926514 0.6046000123023987 0.5774999856948853 0.5486000180244446
          0.6617000102996826 0.6998000144958496 0.26899999380111694 0.18029999732971191 0.8174999952316284 0.546999990940094
          -0.1559000015258789 0.9099000096321106 0.38440001010894775 0.13300000131130219 0.8871999979019165 0.44179999828338623
          -0.6406999826431274 -0.7677000164985657 0.009499999694526196 -0.5439000129699707 -0.8381999731063843 0.040699999779462814
          -0.5041000247001648 -0.8580999970436096 -0.09809999912977219 0.694100022315979 0.7195000052452087 -0.023600000888109207
          0.5823000073432922 0.8069999814033508 0.0982000008225441 0.6133999824523926 0.7795000076293945 0.1273999959230423
          -0.07109999656677246 -0.05990000069141388 0.9957000017166138 -0.039799999445676804 -0.18870000541210175 0.9811999797821045
          -0.27720001339912415 0.0478999987244606 0.9595999717712402 0.8299000263214111 -0.10419999808073044 -0.5480999946594238
          0.8604999780654907 -0.05939999967813492 -0.5059999823570251 0.9251000285148621 -0.013500000350177288 -0.37950000166893005
          0.5429999828338623 -0.8302000164985657 -0.12630000710487366 0.5782999992370605 -0.3077999949455261 -0.7555999755859375
          -0.005799999926239252 -0.2387000024318695 -0.9710999727249146 0.14990000426769257 0.04349999874830246 -0.9876999855041504
          0.09269999712705612 0.2004999965429306 -0.9753000140190125 0.12780000269412994 0.23649999499320984 -0.9631999731063843
          -0.09229999780654907 0.3264999985694885 -0.9406999945640564 0.10750000178813934 0.19189999997615814 -0.9754999876022339
          0.18629999458789825 0.4772999882698059 -0.8586999773979187 0.18310000002384186 0.2881999909877777 -0.9398999810218811
          0.25049999356269836 0.17419999837875366 -0.9523000121116638 0.08179999887943268 0.18889999389648438 -0.978600025177002
          0.875 -0.4494999945163727 0.17970000207424164 0.8931000232696533 -0.40130001306533813 0.20329999923706055
          0.8865000009536743 -0.4422000050544739 0.13650000095367432 -0.9750000238418579 0.19529999792575836 0.10589999705553055
          -0.9763000011444092 0.21230000257492065 0.04280000180006027 -0.9473000168800354 0.2214999943971634 0.2313999980688095
          0.10890000313520432 0.9937000274658203 0.02800000086426735 -0.3416999876499176 0.8507000207901001 -0.39959999918937683
          0.15809999406337738 0.9395999908447266 -0.3034999966621399 -0.5939000248908997 -0.3499000072479248 0.724399983882904
          -0.12559999525547028 -0.7278000116348267 0.6741999983787537 -0.46480000019073486 -0.4634999930858612 0.7544000148773193
          0.9218999743461609 0.14139999449253082 -0.36059999465942383 0.9208999872207642 0.1720999926328659 -0.349700003862381
          0.989799976348877 0.09529999643564224 -0.10599999874830246 0.8495000004768372 -0.1712000072002411 -0.499099999666214
          0.6223999857902527 -0.5738999843597412 -0.5321999788284302 0.729200005531311 -0.6747999787330627 -0.1137000024318695
          -0.7559000253677368 -0.526199996471405 0.38960000872612 -0.8578000068664551 -0.47760000824928284 0.19030000269412994
          -0.8636000156402588 -0.43230000138282776 0.2597000002861023 0.19820000231266022 -0.9776999950408936 0.06989999860525131
          0.6406000256538391 -0.5260000228881836 0.559499979019165 0.9563999772071838 -0.25929999351501465 -0.13449999690055847
          -0.8478999733924866 -0.5126000046730042 0.13510000705718994 -0.928600013256073 -0.3287999927997589 0.17180000245571136
          -0.7081999778747559 -0.39089998602867126 0.5879999995231628 0.869700014591217 0.298799991607666 -0.3928999900817871
          0.8955000042915344 0.22529999911785126 -0.383899986743927 0.9032999873161316 0.08900000154972076 -0.4196999967098236
          -0.9769999980926514 0.09989999979734421 0.18809999525547028 -0.9754999876022339 0.0746999979019165 0.2070000022649765
          -0.9804999828338623 0.10610000044107437 0.1657000035047531 -0.3296999931335449 0.9296000003814697 0.16459999978542328
          -0.27720001339912415 0.9369999766349792 -0.2126999944448471 -0.10520000010728836 0.9944999814033508 0.0024999999441206455
          -0.12269999831914902 0.12520000338554382 -0.984499990940094 -0.05649999901652336 0.13120000064373016 -0.9897000193595886
          -0.12409999966621399 0.09030000120401382 -0.9882000088691711 0.3982999920845032 -0.22529999911785126 0.8891000151634216
          0.23489999771118164 -0.25589999556541443 0.9376999735832214 0.25769999623298645 -0.10459999740123749 0.9605000019073486
          0.7839999794960022 -0.2094999998807907 0.5842999815940857 0.5340999960899353 -0.24950000643730164 0.8077999949455261
          0.6137999892234802 -0.2289000004529953 0.7555999755859375 0.03280000016093254 0.11569999903440475 -0.9926999807357788
          -0.025299999862909317 0.05510000139474869 -0.998199999332428 0.19370000064373016 0.12200000137090683 -0.9733999967575073
          -0.2639999985694885 0.9474999904632568 -0.18060000240802765 -0.02319999970495701 0.9319000244140625 0.3619000017642975
          -0.39169999957084656 0.9021000266075134 -0.18119999766349792 -0.8600000143051147 -0.4140999913215637 0.29809999465942383
          -0.7451000213623047 -0.48539999127388 0.45739999413490295 -0.9631999731063843 -0.2685999870300293 0.007699999958276749
          0.5278000235557556 0.03359999880194664 0.8486999869346619 0.8281999826431274 0.2759000062942505 0.4878999888896942
          0.8123999834060669 0.25690001249313354 0.5235000252723694 0.1298000067472458 0.5138999819755554 0.8479999899864197
          0.8302000164985657 0.38119998574256897 0.4065999984741211 0.5315999984741211 -0.07599999755620956 0.8435999751091003
          -0.42089998722076416 0.9064000248908997 0.03579999879002571 -0.24480000138282776 0.44209998846054077 0.8629000186920166
          -0.3736000061035156 0.6241000294685364 0.6862000226974487 -0.00839999970048666 -0.12229999899864197 0.9925000071525574
          0.5415999889373779 -0.2583000063896179 0.7998999953269958 0.26260000467300415 -0.2549999952316284 0.9305999875068665
          0.2662000060081482 -0.11180000007152557 0.9574000239372253 -0.45750001072883606 -0.580299973487854 -0.673799991607666
          -0.6531000137329102 -0.4302000105381012 -0.6233000159263611 -0.704800009727478 -0.44609999656677246 -0.5515000224113464
          0.5063999891281128 -0.513700008392334 0.6926000118255615 0.5083000063896179 -0.5152999758720398 0.6899999976158142
          0.49160000681877136 -0.4627000093460083 0.7376999855041504 0.22220000624656677 -0.3573000133037567 0.9071999788284302
          0.29420000314712524 -0.3930000066757202 0.8712000250816345 0.2387000024318695 -0.3725000023841858 0.8967999815940857
          -0.013399999588727951 -0.989799976348877 -0.14159999787807465 -0.11100000143051147 -0.9894000291824341 -0.09359999746084213
          0.13210000097751617 -0.9797000288963318 -0.1509999930858612 -0.1151999980211258 -0.13510000705718994 0.9840999841690063
          -0.06840000301599503 -0.14339999854564667 0.9872999787330627 -0.21359999477863312 -0.15080000460147858 0.9652000069618225
          -0.9768000245094299 0.03440000116825104 0.21150000393390656 -0.9688000082969666 -0.02250000089406967 0.24699999392032623
          -0.9814000129699707 -0.010099999606609344 0.1915999948978424 -0.34779998660087585 -0.10750000178813934 -0.9314000010490417
          -0.34139999747276306 -0.121799997985363 -0.9319999814033508 -0.48030000925064087 -0.10509999841451645 -0.8708000183105469
          0.3894999921321869 -0.5317000150680542 -0.7520999908447266 0.628600001335144 -0.32170000672340393 -0.7081000208854675
          0.02019999921321869 -0.36970001459121704 -0.9289000034332275 -0.9251999855041504 -0.37950000166893005 -0.0020000000949949026
          -0.8156999945640564 -0.4645000100135803 -0.3449000120162964 -0.9656999707221985 -0.2517000138759613 -0.06440000236034393
          -0.5422000288963318 0.040300000458955765 -0.8392999768257141 -0.7300000190734863 0.3416999876499176 -0.5918999910354614
          -0.25279998779296875 -0.12780000269412994 -0.9589999914169312 0.2467000037431717 0.9305999875068665 -0.2705000042915344
          0.33820000290870667 -0.021700000390410423 -0.9408000111579895 0.909600019454956 -0.19290000200271606 -0.36800000071525574
          -0.9577000141143799 0.19200000166893005 -0.2143000066280365 -0.901199996471405 -0.0005000000237487257 -0.4334000051021576
          -0.8999999761581421 -0.022600000724196434 -0.43529999256134033 0.7688000202178955 0.193900004029274 -0.6093999743461609
          0.6664999723434448 0.0989999994635582 -0.7389000058174133 0.8328999876976013 -0.027799999341368675 -0.5526999831199646
          -0.7617999911308289 0.08330000191926956 0.6424000263214111 -0.8155999779701233 0.0640999972820282 0.5751000046730042
          -0.6682999730110168 0.01549999974668026 0.7437000274658203 -0.37720000743865967 -0.1316000074148178 0.916700005531311
          -0.41429999470710754 -0.18960000574588776 0.8901000022888184 -0.40720000863075256 -0.1006999984383583 0.907800018787384
          0.9100000262260437 -0.0027000000700354576 -0.4146000146865845 0.8841999769210815 0.02199999988079071 -0.46650001406669617
          0.8305000066757202 0.002099999925121665 -0.5569999814033508 -0.11410000175237656 0.06030000001192093 -0.991599977016449
          -0.14000000059604645 0.13860000669956207 -0.980400025844574 -0.353300005197525 0.10239999741315842 -0.9298999905586243
          -0.6420999765396118 -0.1379999965429306 0.7541000247001648 -0.6189000010490417 -0.037300001829862595 0.784600019454956
          -0.45159998536109924 -0.04540000110864639 0.8910999894142151 -0.9908000230789185 0.12919999659061432 -0.041099999099969864
          -0.9578999876976013 0.12950000166893005 -0.2563999891281128 -0.9914000034332275 0.11069999635219574 -0.07020000368356705
          -0.13510000705718994 -0.9872000217437744 -0.08489999920129776 -0.09019999951124191 -0.9807000160217285 -0.17339999973773956
          -0.11209999769926071 -0.9905999898910522 -0.07840000092983246 0.18359999358654022 -0.8812999725341797 -0.43549999594688416
          0.1340000033378601 -0.8064000010490417 -0.5759999752044678 0.2084999978542328 -0.9049999713897705 -0.3709000051021576
          -0.45239999890327454 0.6682999730110168 -0.590399980545044 -0.19099999964237213 0.6854000091552734 -0.7027000188827515
          -0.5303000211715698 0.7300000190734863 -0.4309999942779541 -0.5442000031471252 -0.6620000004768372 -0.5152999758720398
          -0.5769000053405762 -0.49779999256134033 -0.647599995136261 -0.6148999929428101 -0.5663999915122986 -0.5486999750137329
          -0.9907000064849854 -0.012199999764561653 -0.1356000006198883 -0.9983000159263611 0.003800000064074993 0.05770000070333481
          -0.9991000294685364 -0.0348999984562397 -0.024399999529123306 0.1826999932527542 0.703499972820282 0.6868000030517578
          0.5947999954223633 0.5708000063896179 0.5659999847412109 0.4185999929904938 0.5047000050544739 0.7549999952316284
          0.8855000138282776 -0.414900004863739 -0.20900000631809235 0.8743000030517578 -0.35350000858306885 -0.3325999975204468
          0.9133999943733215 -0.37630000710487366 -0.15520000457763672 0.31349998712539673 0.4049000144004822 0.8589000105857849
          0.5065000057220459 0.29010000824928284 0.8119000196456909 0.21480000019073486 0.3059000074863434 0.9275000095367432
          0.8361999988555908 -0.2614000141620636 -0.4821000099182129 0.7682999968528748 -0.24130000174045563 -0.5928000211715698
          0.748199999332428 -0.26269999146461487 -0.6092000007629395 0.8610000014305115 -0.12680000066757202 -0.4925000071525574
          0.47360000014305115 -0.09130000323057175 -0.8759999871253967 0.9162999987602234 0.05139999836683273 -0.39719998836517334
          0.5157999992370605 0.27489998936653137 -0.8113999962806702 0.16529999673366547 0.32679998874664307 -0.9304999709129333
          0.625 0.4657999873161316 -0.6263999938964844 0.7767000198364258 -0.17229999601840973 -0.6057999730110168
          0.8047000169754028 -0.14100000262260437 -0.5766000151634216 0.9584000110626221 -0.15080000460147858 -0.24220000207424164
          0.3634999990463257 -0.5472000241279602 -0.7538999915122986 0.7260000109672546 -0.3644999861717224 -0.5831999778747559
          0.5252000093460083 -0.4551999866962433 -0.718999981880188 -0.4104999899864197 0.9049999713897705 0.11180000007152557
          -0.6071000099182129 0.7756999731063843 -0.17219999432563782 -0.16680000722408295 0.8162999749183655 -0.5530999898910522
          -0.6082000136375427 0.3935999870300293 -0.6894000172615051 -0.7703999876976013 0.37790000438690186 -0.5134999752044678
          -0.8075000047683716 0.24570000171661377 -0.5361999869346619 0.27250000834465027 0.2906999886035919 -0.9172000288963318
          0.13650000095367432 0.3813000023365021 -0.9143000245094299 0.3199999928474426 0.3521000146865845 -0.8795999884605408
          -0.07880000025033951 0.06369999796152115 -0.9948999881744385 -0.21559999883174896 -0.4514000117778778 -0.8658999800682068
          0.6880999803543091 -0.16580000519752502 -0.7064999938011169 0.9957000017166138 0.0754999965429306 -0.053300000727176666
          0.9977999925613403 -0.0017000000225380063 0.06560000032186508 0.9940999746322632 -0.06289999932050705 0.08820000290870667
          0.9038000106811523 -0.07819999754428864 0.42080000042915344 0.8434000015258789 -0.11299999803304672 0.5253000259399414
          0.900600016117096 -0.007300000172108412 0.4345000088214874 0.8938999772071838 -0.37119999527931213 0.25110000371932983
          0.996399998664856 -0.07159999758005142 0.04650000110268593 0.9990000128746033 -0.044599998742341995 0.002899999963119626
          0.33379998803138733 0.08630000054836273 0.9387000203132629 0.227400004863739 0.15649999678134918 0.9611999988555908
          0.29490000009536743 0.3474000096321106 0.8901000022888184 -0.41600000858306885 -0.07020000368356705 -0.9065999984741211
          -0.28040000796318054 -0.12759999930858612 -0.9513999819755554 -0.7451000213623047 -0.029600000008940697 -0.6662999987602234
          -0.995199978351593 0.07349999994039536 0.06400000303983688 -0.5339000225067139 0.541100025177002 0.6496999859809875
          -0.559499979019165 0.023000000044703484 0.828499972820282 -0.9140999913215637 0.4000000059604645 -0.066600002348423
          -0.9606999754905701 0.18459999561309814 -0.20720000565052032 -0.8026999831199646 0.22699999809265137 -0.5515000224113464
          0.7504000067710876 -0.17710000276565552 0.6367999911308289 0.8694000244140625 -0.40540000796318054 0.2825999855995178
          0.7078999876976013 -0.1354999989271164 0.6931999921798706 0.8774999976158142 -0.3366999924182892 0.34150001406669617
          0.9592999815940857 0.16349999606609344 0.23010000586509705 0.6392999887466431 0.1396999955177307 0.7562000155448914
          -0.7419000267982483 0.40880000591278076 0.531499981880188 -0.9039000272750854 0.4262000024318695 -0.03709999844431877
          -0.8468000292778015 0.39910000562667847 0.35179999470710754 0.3402000069618225 0.3111000061035156 0.8873999714851379
          0.2442999929189682 0.6815999746322632 0.6897000074386597 0.3725999891757965 0.3921000063419342 0.8410999774932861
          0.27129998803138733 -0.1467999964952469 0.951200008392334 0.1720999926328659 -0.13500000536441803 0.9757999777793884
          0.15279999375343323 -0.2777999937534332 0.9484000205993652 0.6952000260353088 0.016699999570846558 0.7186999917030334
          0.9768000245094299 -0.045899998396635056 0.20919999480247498 0.974399983882904 -0.21490000188350677 0.06549999862909317
          -0.3167000114917755 -0.3643999993801117 -0.8758000135421753 -0.10819999873638153 -0.3837999999523163 -0.9169999957084656
          -0.10570000112056732 -0.3788999915122986 -0.9193999767303467 0.10050000250339508 0.11869999766349792 -0.9878000020980835
          0.04690000042319298 0.15000000596046448 -0.9876000285148621 -0.05169999971985817 0.08129999786615372 -0.9952999949455261
          0.9682999849319458 -0.050700001418590546 -0.24449999630451202 0.9527999758720398 0.003100000089034438 -0.303600013256073
          0.9028000235557556 -0.019099999219179153 -0.42969998717308044 0.9858999848365784 -0.13600000739097595 0.09700000286102295
          0.968500018119812 -0.1542000025510788 0.1956000030040741 0.9861000180244446 -0.10459999740123749 0.12890000641345978
          -0.7491999864578247 -0.4514999985694885 0.4846999943256378 -0.6499000191688538 -0.17679999768733978 0.7390999794006348
          -0.6570000052452087 -0.48840001225471497 0.574400007724762 0.4986000061035156 -0.8636000156402588 -0.07460000365972519
          0.8015000224113464 -0.5130000114440918 -0.3073999881744385 0.3684999942779541 -0.8319000005722046 -0.41499999165534973
          -0.6748999953269958 -0.39750000834465027 0.6216999888420105 -0.7213000059127808 -0.5098000168800354 0.46869999170303345
          -0.5839999914169312 -0.546500027179718 0.6001999974250793 -0.3840999901294708 -0.92330002784729 -0.0020000000949949026
          0.13500000536441803 -0.8378000259399414 0.5291000008583069 0.3172999918460846 -0.817799985408783 -0.47999998927116394
          -0.8521000146865845 0.4968999922275543 0.16439999639987946 -0.8295999765396118 0.42640000581741333 0.3605000078678131
          -0.7016000151634216 0.41749998927116394 0.5774999856948853 0.8805999755859375 -0.43650001287460327 0.18410000205039978
          0.753000020980835 -0.4399000108242035 0.489300012588501 0.9563000202178955 -0.24050000309944153 0.16619999706745148
          -0.7700999975204468 0.49470001459121704 -0.40290001034736633 -0.8901000022888184 0.45410001277923584 -0.03849999979138374
          -0.859499990940094 0.48179998993873596 -0.1704999953508377 -0.5083000063896179 0.4165000021457672 -0.7537999749183655
          -0.3652999997138977 0.42640000581741333 -0.8274999856948853 -0.3125999867916107 0.45080000162124634 -0.8360999822616577
          0.8349999785423279 -0.27970001101493835 0.47380000352859497 0.7943999767303467 -0.3028999865055084 0.5264999866485596
          0.7757999897003174 -0.2858000099658966 0.5625 0.4675999879837036 -0.2328999936580658 0.8526999950408936
          0.4607999920845032 -0.21709999442100525 0.8605999946594238 0.3840000033378601 -0.22689999639987946 0.8949999809265137
          0.6507999897003174 0.045099999755620956 -0.7578999996185303 0.24199999868869781 0.18080000579357147 -0.9532999992370605
          0.7182999849319458 -0.027699999511241913 -0.6952000260353088 0.17890000343322754 0.2094999998807907 -0.9613000154495239
          0.3156000077724457 0.1826000064611435 -0.9312000274658203 0.17319999635219574 0.2750999927520752 -0.9456999897956848
          -0.21860000491142273 0.8774999976158142 0.4269999861717224 -0.59170001745224 0.6011000275611877 0.5371999740600586
          -0.7581999897956848 0.5472000241279602 0.3546999990940094 -0.9514999985694885 -0.2071000039577484 -0.22750000655651093
          -0.9865999817848206 -0.15230000019073486 -0.057999998331069946 -0.8823999762535095 -0.47029998898506165 0.009800000116229057
          0.7598999738693237 -0.6151999831199646 0.20999999344348907 0.9014999866485596 -0.3781999945640564 0.21060000360012054
          0.7504000067710876 -0.65829998254776 0.059700001031160355 0.8600999712944031 -0.5101000070571899 0.0038999998942017555
          0.8277000188827515 -0.5612000226974487 0.004600000102072954 0.8759999871253967 -0.47029998898506165 0.10660000145435333
          -0.9380999803543091 0.1462000012397766 -0.3140000104904175 -0.9732999801635742 0.17960000038146973 -0.14319999516010284
          -0.9567000269889832 0.16300000250339508 -0.24130000174045563 -0.9650999903678894 0.10520000010728836 -0.23970000445842743
          -0.972599983215332 0.0430000014603138 -0.22840000689029694 -0.9843999743461609 0.09920000284910202 -0.14550000429153442
          0.19439999759197235 -0.3402000069618225 0.9200999736785889 -0.3637999892234802 -0.3447999954223633 0.8652999997138977
          -0.9426000118255615 0.07479999959468842 -0.3255000114440918 -0.8654999732971191 0.18289999663829803 -0.46630001068115234
          -0.8084999918937683 0.2151000052690506 -0.5476999878883362 -0.5924999713897705 0.5891000032424927 -0.5494999885559082
          -0.6814000010490417 0.5771999955177307 -0.45010000467300415 -0.5533000230789185 0.6169000267982483 -0.5597000122070312
          0.15919999778270721 0.010099999606609344 -0.9872000217437744 0.2922999858856201 -0.012900000438094139 -0.9562000036239624
          0.25920000672340393 0.04859999939799309 -0.9646000266075134 0.1177000030875206 0.3889000117778778 0.9136999845504761
          0.09700000286102295 0.18860000371932983 0.9772999882698059 0.012199999764561653 0.25209999084472656 0.9675999879837036
          0.4700999855995178 0.748199999332428 -0.4681999981403351 0.44690001010894775 0.815500020980835 -0.3677999973297119
          0.16869999468326569 0.6448000073432922 -0.7455000281333923 -0.9801999926567078 0.17170000076293945 0.0989999994635582
          -0.973800003528595 0.12160000205039978 0.19200000166893005 -0.9775999784469604 0.2013999968767166 0.06019999831914902
          0.9204000234603882 0.3887999951839447 -0.040800001472234726 0.9377999901771545 0.2858000099658966 -0.19709999859333038
          0.9937000274658203 -0.028699999675154686 -0.10859999805688858 0.27730000019073486 0.4316999912261963 0.858299970626831
          0.27320000529289246 0.5548999905586243 0.7857999801635742 0.23019999265670776 0.5544999837875366 0.7997000217437744
          0.1459999978542328 0.9505000114440918 0.2741999924182892 0.2630000114440918 0.8996999859809875 0.34850001335144043
          0.3626999855041504 0.8518000245094299 0.3781000077724457 0.6880000233650208 -0.4406999945640564 -0.5766000151634216
          0.23819999396800995 -0.5080999732017517 -0.8277000188827515 0.4869000017642975 -0.5257999897003174 -0.6974999904632568
          0.571399986743927 0.40709999203681946 -0.7125999927520752 0.623199999332428 0.15389999747276306 -0.7667999863624573
          0.6682999730110168 0.14630000293254852 -0.7293999791145325 -0.5081999897956848 0.5516999959945679 -0.661300003528595
          -0.30790001153945923 0.5361999869346619 -0.7858999967575073 -0.5460000038146973 0.5289999842643738 -0.6496000289916992
          0.5874000191688538 0.062199998646974564 -0.8069000244140625 0.48739999532699585 -0.1137000024318695 0.8658000230789185
          0.3199000060558319 -0.06560000032186508 0.9452000260353088 0.4505000114440918 -0.07919999957084656 0.88919997215271
          -0.6484000086784363 0.08380000293254852 0.7566999793052673 -0.7972000241279602 0.0940999984741211 0.5964000225067139
          -0.7361000180244446 0.13910000026226044 0.6624000072479248 0.8465999960899353 -0.4221999943256378 0.32409998774528503
          0.6122999787330627 -0.17980000376701355 0.7699000239372253 0.9567999839782715 0.061799999326467514 0.2842000126838684
          -0.6456000208854675 0.04259999841451645 0.762499988079071 -0.454800009727478 -0.27489998936653137 0.847100019454956
          -0.695900022983551 0.05559999868273735 0.7160000205039978 -0.9541000127792358 -0.2849000096321106 -0.09229999780654907
          -0.7710999846458435 -0.45579999685287476 -0.4447000026702881 -0.8636000156402588 -0.08609999716281891 -0.4968000054359436
          0.7718999981880188 0.2777999937534332 0.5719000101089478 0.6123999953269958 0.5674999952316284 0.5504000186920166
          0.5407000184059143 0.18780000507831573 0.8199999928474426 -0.08169999718666077 -0.0006000000284984708 0.9966999888420105
          -0.13809999823570251 -0.09109999984502792 0.9861999750137329 -0.16699999570846558 -0.07010000199079514 0.9835000038146973
          0.9976000189781189 -0.06129999831318855 0.030899999663233757 0.9873999953269958 -0.0754999965429306 -0.13930000364780426
          0.980400025844574 -0.1080000028014183 0.1647000014781952 0.7900000214576721 -0.45840001106262207 0.40709999203681946
          0.6988000273704529 -0.4790000021457672 0.5313000082969666 0.807200014591217 -0.30809998512268066 0.5034999847412109
          0.7289999723434448 0.2736999988555908 0.6273999810218811 0.6395999789237976 0.27059999108314514 0.7195000052452087
          0.7832000255584717 0.22419999539852142 0.5799999833106995 0.03669999912381172 0.08529999852180481 -0.9957000017166138
          0.1251000016927719 0.09059999883174896 -0.9879999756813049 -0.09369999915361404 0.10490000247955322 -0.9901000261306763
          -0.2702000141143799 0.05730000138282776 -0.9610999822616577 -0.2838999927043915 0.06300000101327896 -0.9567999839782715
          -0.16259999573230743 0.06369999796152115 -0.9846000075340271 -0.8822000026702881 -0.2948000133037567 0.3671000003814697
          -0.7978000044822693 -0.4413999915122986 0.4106000065803528 -0.7541000247001648 -0.3582000136375427 0.5504999756813049
          -0.9164999723434448 -0.27129998803138733 0.2939000129699707 -0.9509999752044678 -0.1728000044822693 0.2565000057220459
          -0.9282000064849854 -0.041099999099969864 0.36970001459121704 0.35499998927116394 -0.036400001496076584 0.9340999722480774
          0.3515999913215637 0.16300000250339508 0.9218000173568726 0.2590000033378601 -0.0066999997943639755 0.9659000039100647
          0.10660000145435333 -0.37529999017715454 0.9207000136375427 0.010999999940395355 -0.36340001225471497 0.9315999746322632
          -0.05609999969601631 -0.31130000948905945 0.9485999941825867 0.14579999446868896 -0.9807000160217285 -0.13050000369548798
          0.22619999945163727 -0.9613000154495239 -0.15729999542236328 0.2117999941110611 -0.9772999882698059 0.0006000000284984708
          0.9470000267028809 -0.047200001776218414 -0.31769999861717224 0.9223999977111816 -0.029500000178813934 -0.38519999384880066
          0.9157000184059143 -0.03500000014901161 -0.4002000093460083 -0.944599986076355 0.3041999936103821 -0.12349999696016312