<?xml version="1.0"?>
<VTKFile type="PolyData" version="0.1" byte_order="LittleEndian" header_type="UInt32" compressor="vtkZLibDataCompressor">
  <PolyData>
    <FieldData>
      <Array type="String" Name="MaterialNames" NumberOfTuples="1" format="ascii">
        109 97 116 101 114 105 97 108 95 48 0
      </Array>
      <Array type="String" Name="MaterialLibraries" NumberOfTuples="1" format="ascii">
        109 97 116 101 114 105 97 108 46 109 116 108 0
      </Array>
    </FieldData>
    <Piece NumberOfPoints="13222" NumberOfVerts="0" NumberOfLines="0" NumberOfStrips="0" NumberOfPolys="26494">
      <PointData Normals="Normals">
        <DataArray type="Float32" Name="Normals" NumberOfComponents="3" format="ascii" RangeMin="0.9998896564868657" RangeMax="1.0000656239298955">
          0.9472000002861023 -0.13940000534057617 0.2888000011444092 0.9871000051498413 -0.13040000200271606 -0.09260000288486481
          0.9617999792098999 -0.17309999465942383 0.21209999918937683 -0.13989999890327454 0.9391999840736389 -0.31360000371932983
          0.02370000071823597 0.8137999773025513 -0.5806000232696533 0.22169999778270721 0.8543000221252441 -0.4700999855995178
          0.4366999864578247 0.6944000124931335 -0.5719000101089478 0.5260000228881836 0.4932999908924103 -0.692799985408783
          0.7182000279426575 0.5254999995231628 -0.4560999870300293 -0.635699987411499 0.09099999815225601 0.7666000127792358
          -0.48089998960494995 0.8192999958992004 0.31209999322891235 -0.3127000033855438 0.9376000165939331 0.1518000066280365
          0.020800000056624413 0.9958999752998352 -0.08799999952316284 0.5044000148773193 0.8377000093460083 -0.20909999310970306
          0.8809999823570251 0.35429999232292175 -0.31349998712539673 -0.5841000080108643 -0.010700000450015068 0.8116000294685364
          -0.33970001339912415 -0.14589999616146088 0.929099977016449 0.35600000619888306 -0.22859999537467957 0.9060999751091003
          -0.5428000092506409 0.6855000257492065 0.4851999878883362 -0.5379999876022339 0.429500013589859 0.7253000140190125
          0.05469999834895134 0.9894999861717224 0.13330000638961792 0.46070000529289246 0.8873999714851379 0.016599999740719795
          0.7560999989509583 0.6360999941825867 -0.15379999577999115 0.8718000054359436 0.4465999901294708 -0.2011999934911728
          -0.7494999766349792 0.3968000113964081 0.5299000144004822 -0.5917999744415283 0.6909000277519226 0.41530001163482666
          -0.24819999933242798 0.9318000078201294 0.26499998569488525 0.09350000321865082 0.9825000166893005 0.1606999933719635
          -0.6819999814033508 0.6463000178337097 0.3422999978065491 0.6218000054359436 0.7800999879837036 0.06960000097751617
          0.8914999961853027 0.45249998569488525 -0.020600000396370888 -0.43689998984336853 0.8485999703407288 0.29829999804496765
          -0.1404000073671341 0.954800009727478 0.26179999113082886 0.1890999972820282 0.9243999719619751 0.3312000036239624
          0.7674999833106995 0.5625 0.3073999881744385 0.8866999745368958 0.35839998722076416 0.2919999957084656
          -0.5130000114440918 0.7746000289916992 0.36980000138282776 0.5148000121116638 0.7458000183105469 0.4226999878883362
          -0.2775000035762787 0.8359000086784363 0.47350001335144043 0.1451999992132187 0.8406000137329102 0.5217999815940857
          0.5623999834060669 0.6313999891281128 0.5339000225067139 0.7904000282287598 -0.31929999589920044 0.5227000117301941
          -0.11789999902248383 0.579200029373169 -0.8065999746322632 -0.3549000024795532 0.53329998254776 -0.767799973487854
          0.16220000386238098 0.673799991607666 -0.72079998254776 0.10249999910593033 0.46000000834465027 -0.8820000290870667
          0.40119999647140503 0.5339000225067139 -0.7443000078201294 0.3882000148296356 0.4530999958515167 -0.8025000095367432
          0.5325000286102295 0.3467000126838684 -0.7721999883651733 0.965499997138977 -0.25949999690055847 0.019300000742077827
          -0.2558000087738037 0.8009999990463257 -0.5412999987602234 -0.3675999939441681 0.8450999855995178 -0.3880999982357025
          0.6672999858856201 0.3698999881744385 -0.646399974822998 -0.4821999967098236 0.46709999442100525 0.741100013256073
          0.9409999847412109 -0.010999999940395355 -0.33820000290870667 0.9828000068664551 0.07750000059604645 -0.1673000007867813
          -0.515999972820282 0.8508999943733215 -0.09780000150203705 -0.36899998784065247 0.9175999760627747 -0.1476999968290329
          0.829200029373169 0.29330000281333923 -0.4758000075817108 -0.5619999766349792 0.36250001192092896 0.7434999942779541
          -0.5128999948501587 0.2856000065803528 0.809499979019165 0.8069000244140625 0.27410000562667847 0.5231000185012817
          -0.40849998593330383 0.8490999937057495 0.33480000495910645 -0.08799999952316284 0.11580000072717667 0.989300012588501
          -0.2863999903202057 0.5964000225067139 0.7498000264167786 -0.33250001072883606 0.4652999937534332 0.8202999830245972
          0.9556999802589417 0.2590999901294708 -0.13930000364780426 -0.4169999957084656 0.19449999928474426 0.8877999782562256
          -0.7116000056266785 0.07450000196695328 0.6985999941825867 -0.9772999882698059 0.11559999734163284 0.17730000615119934
          -0.879800021648407 0.4383000135421753 0.18389999866485596 0.9599000215530396 0.24529999494552612 0.13570000231266022
          0.03830000013113022 0.40470001101493835 0.9136000275611877 -0.7993000149726868 0.6008999943733215 -0.007699999958276749
          -0.6664999723434448 0.7032999992370605 0.24729999899864197 -0.5759000182151794 0.7900999784469604 0.20970000326633453
          0.7843999862670898 0.40470001101493835 0.4699999988079071 0.919700026512146 0.2079000025987625 0.3330000042915344
          -0.597100019454956 0.7839000225067139 0.17010000348091125 -0.227400004863739 0.90829998254776 0.35109999775886536
          0.5353000164031982 0.6272000074386597 0.5656999945640564 0.7763000130653381 0.38510000705718994 0.49900001287460327
          -0.45969998836517334 0.8770999908447266 0.13899999856948853 0.25589999556541443 0.7605999708175659 0.5965999960899353
          -0.3686999976634979 0.8687999844551086 0.3305000066757202 0.5914999842643738 0.49709999561309814 0.6348000168800354
          -0.1451999992132187 0.8348000049591064 0.531000018119812 -0.016899999231100082 0.7128999829292297 0.7009999752044678
          0.05920000001788139 0.9763000011444092 -0.20829999446868896 0.0421999990940094 0.9480000138282776 -0.31529998779296875
          0.30660000443458557 0.9138000011444092 -0.26649999618530273 0.21230000257492065 0.9513000249862671 -0.22339999675750732
          0.3977999985218048 0.9035999774932861 -0.1589999943971634 -0.006800000090152025 0.9641000032424927 -0.2651999890804291
          0.5619000196456909 0.8245000243186951 -0.0658000037074089 0.5802000164985657 0.8068000078201294 -0.11140000075101852
          -0.04749999940395355 0.9965999722480774 -0.06780000030994415 0.22360000014305115 0.9731000065803528 0.05559999868273735
          -0.010599999688565731 0.9991000294685364 0.03959999978542328 0.558899998664856 0.8070999979972839 0.1899999976158142
          -0.019300000742077827 0.9932000041007996 0.11490000039339066 0.09640000015497208 0.9952999949455261 0.0020000000949949026
          0.08900000154972076 0.9714000225067139 0.22020000219345093 0.3222000002861023 0.8794999718666077 0.35010001063346863
          0.6069999933242798 0.6973000168800354 0.38109999895095825 -0.10819999873638153 0.1339000016450882 -0.9850000143051147
          0.1770000010728836 0.9842000007629395 0.004699999932199717 0.10180000215768814 0.9865000247955322 -0.12809999287128448
          0.28369998931884766 0.9372000098228455 0.20270000398159027 0.259799987077713 0.9156000018119812 0.3068000078201294
          0.37630000710487366 0.8363999724388123 0.398499995470047 0.7064999938011169 -0.6643999814987183 0.2434999942779541
          0.7930999994277954 -0.5649999976158142 -0.2273000031709671 -0.24979999661445618 0.3059000074863434 -0.9186999797821045
          -0.1678999960422516 0.22920000553131104 -0.9588000178337097 0.1216999962925911 0.2639000117778778 -0.9567999839782715
          0.2888000011444092 0.32670000195503235 -0.8999000191688538 0.6718999743461609 0.2906000018119812 -0.6812000274658203
          0.12060000002384186 0.975600004196167 0.18310000002384186 0.3009999990463257 0.9235000014305115 0.23759999871253967
          0.857200026512146 -0.4984000027179718 -0.12960000336170197 -0.30230000615119934 0.31630000472068787 -0.8992000222206116
          0.754800021648407 0.2935999929904938 -0.5864999890327454 0.24379999935626984 0.8831999897956848 0.40059998631477356
          0.8070999979972839 -0.13910000026226044 -0.5737000107765198 0.5224999785423279 0.10329999774694443 -0.8463000059127808
          0.5562999844551086 0.3160000145435333 -0.7684999704360962 -0.26989999413490295 0.5667999982833862 -0.7784000039100647
          -0.03400000184774399 0.4438999891281128 -0.8953999876976013 0.8201000094413757 0.22030000388622284 -0.5281000137329102
          -0.585099995136261 0.6148999929428101 -0.5286999940872192 0.7049000263214111 0.515999972820282 -0.48660001158714294
          0.3582000136375427 0.7103999853134155 -0.6057000160217285 0.2676999866962433 0.40299999713897705 -0.8751999735832214
          -0.005200000014156103 0.8306000232696533 -0.5568000078201294 0.8849999904632568 0.19269999861717224 -0.423799991607666
          -0.5400000214576721 0.777999997138977 -0.32100000977516174 -0.012199999764561653 0.8639000058174133 0.5034999847412109
          -0.39469999074935913 0.6764000058174133 0.6216999888420105 -0.13269999623298645 0.8648999929428101 0.48399999737739563
          0.5968999862670898 0.7983999848365784 -0.0794999971985817 0.2718999981880188 0.9623000025749207 -0.0044999998062849045
          -0.17669999599456787 0.9702000021934509 0.1657000035047531 0.9420999884605408 0.1979999989271164 -0.27059999108314514
          -0.6365000009536743 0.6808000206947327 -0.36239999532699585 0.41760000586509705 0.90829998254776 -0.024700000882148743
          0.6710000038146973 0.7387999892234802 -0.06239999830722809 -0.3174999952316284 0.6207000017166138 0.7167999744415283
          0.2054000049829483 0.6557999849319458 0.7264000177383423 0.397599995136261 0.7583000063896179 0.5166000127792358
          0.2506999969482422 0.7900999784469604 0.5594000220298767 -0.08839999884366989 0.7300999760627747 0.6776000261306763
          0.983299970626831 0.16850000619888306 -0.06830000132322311 0.5181000232696533 0.8549000024795532 -0.02710000053048134
          -0.2685000002384186 0.8112000226974487 0.5195000171661377 -0.3824000060558319 0.6559000015258789 0.6506999731063843
          -0.13339999318122864 0.5961999893188477 0.791700005531311 0.12229999899864197 0.6812000274658203 0.7218000292778015
          0.2460000067949295 0.5774999856948853 0.7784000039100647 0.11900000274181366 0.4607999920845032 0.8794999718666077
          -0.07270000129938126 0.4514000117778778 0.8892999887466431 -0.23800000548362732 0.46939998865127563 0.8501999974250793
          -0.026000000536441803 0.30809998512268066 0.9509999752044678 0.26170000433921814 0.14010000228881836 0.9549000263214111
          -0.02979999966919422 -0.17829999327659607 0.9835000038146973 -0.7853000164031982 -0.1665000021457672 0.5963000059127808
          -0.9613000154495239 -0.1680999994277954 -0.218299999833107 -0.5299000144004822 0.7968999743461609 -0.29010000824928284
          0.121799997985363 0.5622000098228455 0.8180000185966492 0.5152000188827515 0.7944999933242798 0.3212999999523163
          0.5626999735832214 0.7570000290870667 0.3321000039577484 -0.22300000488758087 0.3959999978542328 0.8906999826431274
          0.0714000016450882 0.37540000677108765 0.9240999817848206 0.17389999330043793 0.322299987077713 0.9304999709129333
          -0.4302000105381012 0.0940999984741211 -0.8978000283241272 -0.7627000212669373 0.32749998569488525 -0.5576000213623047
          0.9693999886512756 0.1565999984741211 0.1890999972820282 0.26179999113082886 0.3416000008583069 0.9025999903678894
          -0.002400000113993883 0.43869999051094055 0.8985999822616577 -0.13189999759197235 0.4016999900341034 0.9061999917030334
          -0.08250000327825546 0.3955000042915344 0.9146999716758728 0.1754000037908554 0.6535999774932861 0.7361999750137329
          0.46299999952316284 0.6218000054359436 0.631600022315979 -0.4724000096321106 0.7084000110626221 -0.524399995803833
          0.5357999801635742 0.01080000028014183 0.8442000150680542 0.6531000137329102 -0.42989999055862427 0.6233000159263611
          0.04399999976158142 0.3458999991416931 0.9372000098228455 0.40880000591278076 0.35760000348091125 0.8396000266075134
          -0.5202999711036682 0.7937999963760376 -0.31459999084472656 -0.5842999815940857 0.8115000128746033 -0.004900000058114529
          -0.5166000127792358 0.8551999926567078 -0.0421999990940094 -0.4713999927043915 0.866100013256073 0.16619999706745148
          -0.5551999807357788 0.7957000136375427 0.2418999969959259 -0.4855000078678131 0.863099992275238 0.1388999968767166
          0.8730000257492065 0.20270000398159027 0.44359999895095825 -0.4968999922275543 0.8138999938964844 0.30090001225471497
          -0.5935999751091003 0.7911999821662903 0.14710000157356262 0.7983999848365784 0.25099998712539673 0.5472999811172485
          -0.6535000205039978 0.7253999710083008 0.21619999408721924 -0.517300009727478 0.824400007724762 0.2298000007867813
          -0.5759999752044678 0.6909000277519226 0.4368000030517578 -0.3224000036716461 0.7402999997138977 0.5898000001907349
          0.3125 0.5828999876976013 0.75 0.5346999764442444 0.3774000108242035 0.7559999823570251
          0.765500009059906 0.2759000062942505 0.5813000202178955 0.10209999978542328 0.6353999972343445 0.7653999924659729
          0.3230000138282776 0.4156000018119812 0.8501999974250793 0.16200000047683716 0.9279000163078308 -0.33559998869895935
          0.10830000042915344 0.9124000072479248 -0.3946000039577484 0.26260000467300415 0.9056000113487244 -0.3330000042915344
          0.3303999900817871 0.879800021648407 -0.3416000008583069 0.4097000062465668 0.8640000224113464 -0.29260000586509705
          0.03830000013113022 0.9684000015258789 -0.24650000035762787 0.01720000058412552 0.95660001039505 -0.2906999886035919
          0.21690000593662262 0.9611999988555908 -0.17030000686645508 0.4325000047683716 0.8822000026702881 -0.18569999933242798
          0.6146000027656555 0.7659000158309937 -0.18850000202655792 0.5741000175476074 0.7588000297546387 -0.3077000081539154
          0.021199999377131462 0.996999979019165 -0.07450000196695328 0.02590000070631504 0.9988999962806702 -0.03929999843239784
          0.0843999981880188 0.9962000250816345 0.022299999371170998 0.22849999368190765 0.9700000286102295 -0.08309999853372574
          0.6661999821662903 0.722599983215332 -0.18459999561309814 -0.00009999999747378752 0.9889000058174133 0.14820000529289246
          0.03720000013709068 0.982200026512146 0.18400000035762787 -0.0430000014603138 0.9986000061035156 -0.02969999983906746
          0.7073000073432922 0.7069000005722046 -0.006099999882280827 0.03420000150799751 0.989799976348877 0.13830000162124634
          0.035999998450279236 0.992900013923645 -0.11330000311136246 0.7545999884605408 0.6560999751091003 0.002199999988079071
          -0.009600000455975533 0.9836000204086304 0.17980000376701355 -0.18230000138282776 0.9779999852180481 0.10140000283718109
          0.35530000925064087 0.9347000122070312 -0.0034000000450760126 0.5199000239372253 0.854200005531311 0.006899999920278788
          0.7163000106811523 0.6976000070571899 -0.01679999940097332 -0.18129999935626984 0.978600025177002 0.09740000218153
          -0.3407999873161316 0.9352999925613403 -0.09549999982118607 0.14830000698566437 0.9855999946594238 -0.08070000261068344
          0.6600000262260437 0.7445999979972839 0.09960000216960907 0.8087999820709229 0.5724999904632568 0.13439999520778656
          -0.3531000018119812 0.9343000054359436 -0.04859999939799309 -0.08169999718666077 0.9836000204086304 -0.16110000014305115
          0.5127999782562256 0.8554999828338623 0.0714000016450882 -0.19869999587535858 0.9492999911308289 -0.243599995970726
          -0.2134999930858612 0.9254000186920166 -0.31299999356269836 0.8436999917030334 0.5027999877929688 0.18799999356269836
          -0.09099999815225601 0.9053000211715698 -0.414900004863739 0.009999999776482582 0.9212999939918518 -0.388700008392334
          0.728600025177002 0.669700026512146 0.14329999685287476 0.8396999835968018 0.5246000289916992 0.1404000073671341
          0.01269999984651804 0.92330002784729 -0.3837999999523163 -0.11330000311136246 0.8888999819755554 -0.4440000057220459
          0.009600000455975533 0.892799973487854 -0.45019999146461487 0.6956999897956848 0.7168999910354614 0.04479999840259552
          -0.07980000227689743 0.8935999870300293 -0.4417000114917755 0.7720999717712402 0.5960000157356262 0.22040000557899475
          0.13590000569820404 0.9282000064849854 -0.3463999927043915 -0.0272000003606081 0.9254999756813049 -0.3776000142097473
          -0.15780000388622284 0.9455000162124634 -0.2847999930381775 -0.02449999935925007 0.9757000207901001 -0.21770000457763672
          0.8278999924659729 0.5371999740600586 0.1607999950647354 0.11309999972581863 0.9420999884605408 -0.3156000077724457
          0.0803999975323677 0.9480999708175659 -0.3077000081539154 -0.06310000270605087 0.9894999861717224 -0.1298999935388565
          0.774399995803833 0.6100999712944031 0.16740000247955322 0.8202999830245972 0.545199990272522 0.17270000278949738
          0.008200000040233135 0.9718999862670898 -0.2353000044822693 0.08950000256299973 0.95169997215271 -0.2935999929904938
          -0.013100000098347664 0.9943000078201294 -0.10610000044107437 -0.041600000113248825 0.9911999702453613 -0.12520000338554382
          0.777899980545044 0.6265000104904175 0.048700001090765 0.01209999993443489 -0.30630001425743103 -0.9517999887466431
          0.21050000190734863 -0.4948999881744385 -0.8429999947547913 -0.1387999951839447 0.9902999997138977 0.00800000037997961
          0.008999999612569809 0.9998000264167786 0.015799999237060547 0.5070000290870667 0.7595000267028809 0.4075999855995178
          0.6507999897003174 0.7584999799728394 -0.031300000846385956 -0.15800000727176666 -0.04349999874830246 -0.9864000082015991
          0.009999999776482582 0.9941999912261963 0.10719999670982361 -0.07720000296831131 0.9768999814987183 0.19910000264644623
          0.03550000116229057 0.9987999796867371 -0.03229999914765358 0.4122999906539917 0.9014000296592712 0.13230000436306
          0.3725000023841858 0.8986999988555908 -0.2313999980688095 0.5644999742507935 0.6297000050544739 -0.5336999893188477
          0.3637999892234802 0.801800012588501 -0.4740000069141388 0.1462000012397766 0.32820001244544983 -0.9332000017166138
          0.5266000032424927 -0.663100004196167 -0.5320000052452087 -0.0723000019788742 0.1534000039100647 -0.9854999780654907
          0.41519999504089355 0.26269999146461487 -0.8709999918937683 -0.17000000178813934 0.9469000101089478 0.2728999853134155
          0.2874999940395355 0.9229999780654907 0.2558000087738037 0.33649998903274536 0.9359999895095825 0.10320000350475311
          0.19660000503063202 0.9607999920845032 -0.19509999454021454 0.16359999775886536 0.8964999914169312 -0.41179999709129333
          0.5300999879837036 -0.5059000253677368 -0.6804999709129333 -0.36559998989105225 0.08100000023841858 -0.9272000193595886
          0.786899983882904 0.19169999659061432 -0.5864999890327454 0.013399999588727951 0.9692999720573425 0.24560000002384186
          -0.1598999947309494 0.9613000154495239 0.22429999709129333 0.12620000541210175 0.9904000163078308 -0.055799998342990875
          0.09880000352859497 0.9332000017166138 -0.34549999237060547 0.6233000159263611 -0.20160000026226044 -0.7555000185966492
          -0.29190000891685486 0.11069999635219574 -0.949999988079071 -0.11550000309944153 0.9577999711036682 0.26330000162124634
          -0.04010000079870224 0.9560999870300293 0.2903999984264374 -0.24650000035762787 0.9269999861717224 -0.28279998898506165
          -0.23319999873638153 0.880299985408783 -0.413100004196167 0.5232999920845032 0.02879999950528145 -0.8515999913215637
          0.18629999458789825 0.18469999730587006 -0.9649999737739563 -0.10700000077486038 0.14110000431537628 -0.9842000007629395
          -0.17659999430179596 0.9193000197410583 0.351500004529953 0.08980000019073486 0.9194999933242798 0.38260000944137573
          0.15129999816417694 0.9617000222206116 0.22859999537467957 -0.10679999738931656 0.9940000176429749 0.021900000050663948
          -0.1429000049829483 0.9460999965667725 0.2906000018119812 -0.05420000106096268 0.9068999886512756 0.41780000925064087
          0.23180000483989716 0.8934000134468079 0.384799987077713 0.17509999871253967 0.9575999975204468 0.22849999368190765
          0.06270000338554382 0.9217000007629395 0.38269999623298645 0.1607999950647354 0.9186999797821045 0.36070001125335693
          0.11469999700784683 0.9679999947547913 0.22300000488758087 -0.028699999675154686 0.9965000152587891 0.07819999754428864
          -0.43130001425743103 0.878600001335144 -0.20469999313354492 0.7275000214576721 -0.47540000081062317 0.49470001459121704
          0.1363999992609024 -0.40149998664855957 0.9056000113487244 -0.4505999982357025 -0.305400013923645 0.8389000296592712
          -0.8201000094413757 -0.2939999997615814 0.4909000098705292 -0.012799999676644802 0.9460999965667725 0.32359999418258667
          -0.27459999918937683 0.9550999999046326 -0.11110000312328339 0.2596000134944916 0.9121999740600586 0.31709998846054077
          0.02590000070631504 0.6022999882698059 0.7978000044822693 0.8133999705314636 0.5263000130653381 0.2475000023841858
          0.9918000102043152 -0.12129999697208405 -0.039900001138448715 0.9948999881744385 0.10019999742507935 0.006300000008195639
          0.027499999850988388 0.9562000036239624 0.2912999987602234 -0.15410000085830688 0.9825999736785889 0.1031000018119812
          0.3797999918460846 0.6373999714851379 0.6704000234603882 -0.1509000062942505 0.5421000123023987 0.82669997215271
          -0.0003000000142492354 0.3215000033378601 0.9469000101089478 0.07159999758005142 0.388700008392334 0.9185000061988831
          -0.15680000185966492 0.37959998846054077 0.9117000102996826 -0.7296000123023987 0.46209999918937683 0.5041000247001648
          -0.48579999804496765 0.7886999845504761 0.3765999972820282 0.16189999878406525 0.9732999801635742 -0.16279999911785126
          0.5285999774932861 0.1080000028014183 -0.8418999910354614 0.06260000169277191 0.5782999992370605 -0.8133999705314636
          -0.5159000158309937 -0.16429999470710754 -0.8406999707221985 -0.21320000290870667 0.9745000004768372 0.07039999961853027
          -0.48989999294281006 0.8662999868392944 -0.09730000048875809 0.16609999537467957 0.10239999741315842 0.9807000160217285
          -0.059300001710653305 0.18449999392032623 0.9810000061988831 -0.1753000020980835 0.21089999377727509 0.9616000056266785
          -0.6944000124931335 0.6923999786376953 -0.195700004696846 -0.359499990940094 0.7894999980926514 -0.4975000023841858
          0.20270000398159027 0.43479999899864197 0.8773999810218811 0.16220000386238098 0.45590001344680786 0.8751000165939331
          0.10329999774694443 0.3052999973297119 0.9466000199317932 -0.007699999958276749 0.13379999995231628 0.9909999966621399
          0.07840000092983246 0.02630000002682209 0.9965999722480774 -0.5995000004768372 0.708899974822998 -0.3714999854564667
          0.925599992275238 0.12160000205039978 0.35850000381469727 0.37959998846054077 -0.009800000116229057 0.9251000285148621
          -0.5199000239372253 0.842199981212616 -0.14309999346733093 0.5407999753952026 -0.5558000206947327 0.6313999891281128
          0.3402999937534332 -0.2651999890804291 0.9021000266075134 -0.5467000007629395 0.7768999934196472 0.31209999322891235
          0.6499000191688538 -0.7224000096321106 0.2361000031232834 -0.7150999903678894 0.5336999893188477 0.4514000117778778
          -0.6881999969482422 0.6456999778747559 0.33070001006126404 0.8808000087738037 0.08489999920129776 0.4657000005245209
          -0.859499990940094 0.4271000027656555 0.28060001134872437 -0.8015000224113464 0.5759000182151794 0.16060000658035278
          0.857200026512146 0.14339999854564667 0.4945000112056732 -0.6381000280380249 0.7038000226020813 0.31220000982284546
          -0.48809999227523804 0.7545999884605408 0.43860000371932983 0.682200014591217 0.14839999377727509 0.7159000039100647
          -0.16670000553131104 0.932200014591217 0.32120001316070557 -0.2053000032901764 0.781000018119812 0.5898000001907349
          0.412200003862381 0.4544999897480011 0.7896000146865845 0.17499999701976776 0.7450000047683716 0.6435999870300293
          0.002400000113993883 0.7949000000953674 -0.6067000031471252 0.2085999995470047 0.789900004863739 -0.5766000151634216
          0.4749000072479248 0.7495999932289124 -0.460999995470047 0.400299996137619 0.7057999968528748 -0.5843999981880188
          0.5763999819755554 0.6852999925613403 -0.4449999928474426 0.010999999940395355 0.8133000135421753 -0.5817000269889832
          0.07750000059604645 0.8549000024795532 -0.5128999948501587 0.6467000246047974 0.6814000010490417 -0.3425000011920929
          0.7232999801635742 0.588699996471405 -0.36090001463890076 -0.022700000554323196 0.7979999780654907 -0.6022999882698059
          -0.05400000140070915 0.8166000247001648 -0.5746999979019165 -0.01549999974668026 0.7879999876022339 -0.6154999732971191
          0.09109999984502792 0.8956999778747559 -0.4350000023841858 0.23280000686645508 0.8971999883651733 -0.3752000033855438
          0.4016999900341034 0.871999979019165 -0.27950000762939453 0.6571999788284302 0.656499981880188 -0.3702999949455261
          0.04960000142455101 0.8991000056266785 -0.4348999857902527 0.7721999883651733 0.45899999141693115 -0.4392000138759613
          -0.1444000005722046 0.7718999981880188 -0.6190999746322632 -0.10429999977350235 0.800599992275238 -0.5900999903678894
          -0.013899999670684338 0.8813999891281128 -0.4722000062465668 0.7516000270843506 0.5516999959945679 -0.361299991607666
          0.8507999777793884 0.38589999079704285 -0.35670000314712524 -0.17470000684261322 0.8234000205993652 -0.539900004863739
          0.01590000092983246 0.9390000104904175 -0.3434000015258789 0.6894999742507935 0.6901000142097473 -0.2198999971151352
          -0.06599999964237213 0.9161999821662903 -0.3950999975204468 0.8510000109672546 0.5210000276565552 -0.06549999862909317
          0.9228000044822693 0.3368000090122223 -0.18700000643730164 -0.20430000126361847 0.8773000240325928 -0.4341999888420105
          -0.11169999837875366 0.9555000066757202 -0.27300000190734863 -0.2939000129699707 0.8549000024795532 -0.42739999294281006
          0.0007999999797903001 0.9998999834060669 0.013199999928474426 -0.08290000259876251 0.9696999788284302 -0.2296999990940094
          -0.024700000882148743 0.9850999712944031 -0.16990000009536743 0.05119999870657921 0.9914000034332275 0.12020000070333481
          0.8619999885559082 0.5015000104904175 0.0731000006198883 -0.3801000118255615 0.8650000095367432 -0.32739999890327454
          -0.1396999955177307 0.9860000014305115 -0.09070000052452087 0.1136000007390976 0.9919000267982483 0.05570000037550926
          0.12870000302791595 0.9733999967575073 0.18960000574588776 -0.0357000008225441 0.9315000176429749 0.3619999885559082
          -0.2061000019311905 0.9049000144004822 0.3723999857902527 -0.27149999141693115 0.9534000158309937 -0.131400004029274
          0.3172999918460846 0.8946999907493591 0.3140999972820282 0.11999999731779099 0.7475000023841858 0.6532999873161316
          -0.2061000019311905 0.7468000054359436 0.6323000192642212 -0.287200003862381 0.8982999920845032 0.33250001072883606
          0.000699999975040555 0.9915000200271606 0.12970000505447388 -0.15199999511241913 0.9800000190734863 -0.12849999964237213
          0.05249999836087227 0.9965999722480774 -0.06390000134706497 0.3100999891757965 0.9437000155448914 0.1151999980211258
          0.5123999714851379 0.6244000196456909 0.5893999934196472 0.5223000049591064 0.38960000872612 0.7585999965667725
          0.016699999570846558 0.4828000068664551 0.8755000233650208 -0.4388999938964844 0.4927000105381012 0.7513999938964844
          -0.5232999920845032 0.71670001745224 0.460999995470047 0.909600019454956 0.3840000033378601 0.15850000083446503
          -0.24310000240802765 0.9490000009536743 -0.2004999965429306 0.6764000058174133 0.6786999702453613 0.28600001335144043
          -0.7116000056266785 0.6284000277519226 0.3142000138759613 -0.7486000061035156 0.630299985408783 -0.20579999685287476
          -0.5163000226020813 0.8561000227928162 0.022099999710917473 -0.05290000140666962 0.996999979019165 -0.056299999356269836
          0.0803999975323677 0.9952999949455261 -0.053199999034404755 -0.3215000033378601 0.9092000126838684 -0.2644999921321869
          0.40549999475479126 0.9021000266075134 -0.14749999344348907 0.7408999800682068 0.6549999713897705 -0.14839999377727509
          -0.40869998931884766 0.7703999876976013 -0.489300012588501 -0.13279999792575836 0.9476000070571899 -0.2904999852180481
          -0.09160000085830688 0.9663000106811523 -0.24050000309944153 0.14869999885559082 0.9778000116348267 -0.1477999985218048
          0.4936999976634979 0.7919999957084656 -0.35910001397132874 0.7867000102996826 0.48010000586509705 -0.3880999982357025
          0.5950000286102295 0.5989000201225281 -0.5358999967575073 0.38440001010894775 0.5756000280380249 -0.7217000126838684
          -0.035999998450279236 0.701200008392334 -0.7120000123977661 -0.0038999998942017555 0.8970000147819519 -0.44190001487731934