<?xml version="1.0"?>
<VTKFile type="PolyData" version="0.1" byte_order="LittleEndian" header_type="UInt32" compressor="vtkZLibDataCompressor">
  <PolyData>
    <FieldData>
      <Array type="String" Name="MaterialNames" NumberOfTuples="1" format="ascii">
        109 97 116 101 114 105 97 108 95 48 0
      </Array>
      <Array type="String" Name="MaterialLibraries" NumberOfTuples="1" format="ascii">
        109 97 116 101 114 105 97 108 46 109 116 108 0
      </Array>
    </FieldData>
    <Piece NumberOfPoints="14011" NumberOfVerts="0" NumberOfLines="0" NumberOfStrips="0" NumberOfPolys="28429">
      <PointData Normals="Normals">
        <DataArray type="Float32" Name="Normals" NumberOfComponents="3" format="ascii" RangeMin="0.9999206714693094" RangeMax="1.000079751294735">
          0.15189999341964722 0.21040000021457672 -0.9656999707221985 0.047600001096725464 0.1867000013589859 -0.9812999963760376
          0.053300000727176666 0.1476999968290329 -0.9876000285148621 -0.37290000915527344 -0.06610000133514404 -0.9254999756813049
          -0.5990999937057495 -0.19660000503063202 -0.7760999798774719 -0.6812000274658203 -0.2126999944448471 -0.7005000114440918
          0.30709999799728394 0.12039999663829803 0.9440000057220459 0.503000020980835 0.14030000567436218 0.8528000116348267
          0.21480000019073486 0.08709999918937683 0.9728000164031982 0.8149999976158142 0.39899998903274536 -0.4203000068664551
          0.8342000246047974 0.4072999954223633 -0.3716999888420105 0.8689000010490417 0.40709999203681946 -0.2816999852657318
          0.9366000294685364 -0.349700003862381 0.0210999995470047 0.5231999754905701 -0.7350000143051147 0.43140000104904175
          0.8497999906539917 -0.4178999960422516 0.321399986743927 -0.9257000088691711 -0.35530000925064087 0.12929999828338623
          -0.8669000267982483 -0.38920000195503235 0.31139999628067017 -0.8690999746322632 -0.383899986743927 0.31189998984336853
          -0.4706000089645386 0.826200008392334 0.30959999561309814 -0.7396000027656555 0.6358000040054321 0.2206999957561493
          -0.8382999897003174 0.48260000348091125 0.25369998812675476 -0.9294000267982483 0.03220000118017197 -0.3677999973297119
          -0.6431999802589417 0.06419999897480011 -0.7630000114440918 -0.9900000095367432 -0.0877000018954277 -0.11079999804496765
          -0.7803000211715698 -0.29829999804496765 -0.5497000217437744 -0.7584999799728394 -0.22789999842643738 -0.6104999780654907
          -0.7730000019073486 -0.2685000002384186 -0.5748000144958496 0.7224000096321106 0.065700002014637 0.6883999705314636
          0.8003000020980835 0.22349999845027924 0.5562999844551086 0.7440000176429749 0.1582999974489212 0.6492000222206116
          -0.7448999881744385 -0.619700014591217 0.24729999899864197 -0.8370000123977661 -0.5260000228881836 0.1509999930858612
          -0.8393999934196472 -0.428600013256073 0.33410000801086426 -0.4415000081062317 -0.28380000591278076 0.8511999845504761
          -0.39649999141693115 -0.32030001282691956 0.8603000044822693 -0.4004000127315521 -0.2565000057220459 0.8797000050544739
          0.16590000689029694 0.29760000109672546 -0.9401999711990356 -0.3783000111579895 -0.21899999678134918 -0.899399995803833
          0.05389999970793724 -0.444599986076355 -0.89410001039505 -0.2851000130176544 0.6930999755859375 -0.6621000170707703
          -0.05779999867081642 0.5425000190734863 -0.838100016117096 -0.29589998722076416 0.47859999537467957 -0.82669997215271
          0.0471000000834465 -0.004999999888241291 -0.9988999962806702 -0.09640000015497208 -0.10119999945163727 -0.9901999831199646
          -0.012900000438094139 -0.06499999761581421 -0.9977999925613403 0.3560999929904938 0.09459999948740005 0.9297000169754028
          0.3346000015735626 0.1655000001192093 0.9276999831199646 0.3095000088214874 -0.15399999916553497 0.9383000135421753
          -0.21619999408721924 0.3970000147819519 -0.8920000195503235 -0.1445000022649765 0.3564999997615814 -0.9230999946594238
          -0.24740000069141388 0.2856000065803528 -0.9258999824523926 0.37770000100135803 -0.6672000288963318 0.6420000195503235
          0.4056999981403351 -0.896399974822998 0.17839999496936798 0.5895000100135803 -0.7879999876022339 0.1776999980211258
          0.5654000043869019 0.11980000138282776 0.816100001335144 0.3248000144958496 0.3160000145435333 0.8913999795913696
          0.45750001072883606 0.19949999451637268 0.866599977016449 -0.3619000017642975 -0.9178000092506409 0.1632000058889389
          -0.18080000579357147 -0.9286999702453613 0.3237000107765198 0.18490000069141388 -0.95660001039505 0.22519999742507935
          0.5723000168800354 0.41760000586509705 -0.7057999968528748 0.6531999707221985 0.43779999017715454 -0.6177999973297119
          0.47049999237060547 0.43560001254081726 -0.7674000263214111 0.7211999893188477 0.48579999804496765 -0.49380001425743103
          0.7088000178337097 0.400299996137619 -0.5807999968528748 0.6554999947547913 0.4715999960899353 -0.5898000001907349
          0.06159999966621399 -0.10010000318288803 0.9930999875068665 0.0640999972820282 -0.05900000035762787 0.9962000250816345
          0.0406000018119812 -0.06499999761581421 0.9970999956130981 -0.2849000096321106 0.17239999771118164 -0.9429000020027161
          -0.298799991607666 0.19990000128746033 -0.9330999851226807 -0.6359000205993652 -0.10300000011920929 -0.7648000121116638
          -0.46889999508857727 -0.8525000214576721 0.23080000281333923 -0.08569999784231186 -0.917900025844574 0.3873000144958496
          -0.3684000074863434 -0.9217000007629395 -0.12110000103712082 0.5180000066757202 -0.5297999978065491 -0.671500027179718
          0.2578999996185303 -0.5738999843597412 -0.7773000001907349 0.21889999508857727 -0.5012999773025513 -0.8371999859809875
          -0.17839999496936798 0.10499999672174454 0.9782999753952026 -0.18230000138282776 0.5666000247001648 0.8034999966621399
          -0.16349999606609344 0.1696999967098236 0.9718000292778015 0.326200008392334 -0.01759999990463257 0.9451000094413757
          0.9535999894142151 0.2736000120639801 -0.1257999986410141 0.5375999808311462 -0.31690001487731934 0.7814000248908997
          0.5591999888420105 -0.6061000227928162 -0.5655999779701233 0.7361000180244446 -0.6693999767303467 -0.10019999742507935
          0.6169000267982483 -0.7477999925613403 -0.24560000002384186 -0.05339999869465828 -0.7771999835968018 -0.6269999742507935
          0.2777000069618225 -0.9452999830245972 0.1712000072002411 0.6355000138282776 -0.7671999931335449 -0.08649999648332596
          0.22769999504089355 -0.1234000027179718 -0.9659000039100647 -0.1234000027179718 0.3944999873638153 -0.9104999899864197
          -0.004399999976158142 -0.08969999849796295 -0.9959999918937683 0.32249999046325684 0.7538999915122986 0.5723999738693237
          0.16599999368190765 0.6956999897956848 0.6988000273704529 0.05000000074505806 0.6485999822616577 0.7595000267028809
          0.5126000046730042 -0.12370000034570694 0.8496999740600586 0.6323000192642212 -0.05429999902844429 0.7728000283241272
          0.5284000039100647 -0.07720000296831131 0.8454999923706055 0.8047000169754028 -0.040699999779462814 0.5922999978065491
          0.7031000256538391 0.07760000228881836 0.7067999839782715 0.830299973487854 0.1347000002861023 0.5407999753952026
          0.6111000180244446 0.4074000120162964 -0.678600013256073 0.550599992275238 0.3578999936580658 -0.7541999816894531
          0.5512999892234802 0.4431000053882599 -0.7069000005722046 0.5870000123977661 0.6898999810218811 -0.423799991607666
          0.609000027179718 0.6955999732017517 -0.38100001215934753 0.6962000131607056 0.7170000076293945 -0.035599999129772186
          -0.1703999936580658 0.6388999819755554 -0.7501000165939331 -0.07320000231266022 0.8137999773025513 -0.5766000151634216
          -0.25 0.8169999718666077 -0.519599974155426 0.8794000148773193 0.21490000188350677 -0.42480000853538513
          0.8952000141143799 0.23409999907016754 -0.37929999828338623 0.9146999716758728 0.1160999983549118 -0.3871000111103058
          0.10729999840259552 0.7889999747276306 -0.6049000024795532 0.021400000900030136 0.7664999961853027 -0.6419000029563904
          -0.05909999832510948 0.847599983215332 -0.527400016784668 0.15850000083446503 0.7609999775886536 -0.6291000247001648
          0.023900000378489494 -0.17440000176429749 -0.9843999743461609 0.7409999966621399 -0.4611999988555908 -0.48820000886917114
          0.18930000066757202 0.6937999725341797 -0.6948999762535095 0.6761999726295471 0.27730000019073486 0.6825000047683716
          0.2402999997138977 0.9707000255584717 0.006000000052154064 -0.4805000126361847 0.320499986410141 -0.8162999749183655
          -0.3125999867916107 0.608299970626831 -0.7296000123023987 -0.0012000000569969416 0.011900000274181366 0.9998999834060669
          0.0007999999797903001 -0.517300009727478 0.8557999730110168 -0.10369999706745148 0.14569999277591705 0.9839000105857849
          0.43389999866485596 0.3978999853134155 0.8083000183105469 0.05719999969005585 0.641700029373169 0.7648000121116638
          0.5055000185966492 0.7142000198364258 0.48410001397132874 -0.6022999882698059 0.45669999718666077 0.654699981212616
          -0.54339998960495 0.2994000017642975 0.7843000292778015 -0.5293999910354614 0.24120000004768372 0.8133999705314636
          -0.902899980545044 -0.3921999931335449 -0.1761000007390976 -0.925000011920929 -0.37929999828338623 0.02239999920129776
          -0.9236000180244446 -0.38179999589920044 -0.035100001841783524 -0.8781999945640564 -0.4194999933242798 0.2295999974012375
          -0.8655999898910522 -0.46320000290870667 0.19030000269412994 -0.8220999836921692 -0.445499986410141 0.35440000891685486
          -0.8452000021934509 -0.5013999938964844 -0.1851000040769577 -0.8812000155448914 -0.3312999904155731 -0.33730000257492065
          -0.7925999760627747 -0.43549999594688416 -0.42669999599456787 0.36500000953674316 -0.589900016784668 -0.720300018787384
          0.40230000019073486 -0.09210000187158585 -0.9107999801635742 0.4334999918937683 -0.4332999885082245 -0.7901999950408936
          -0.920799970626831 -0.06750000268220901 -0.3840999901294708 -0.5916000008583069 -0.14409999549388885 -0.7932999730110168
          -0.4268999993801117 0.39559999108314514 -0.8131999969482422 -0.03280000016093254 0.13009999692440033 -0.9909999966621399
          0.11640000343322754 0.2492000013589859 -0.9613999724388123 -0.16930000483989716 0.40049999952316284 -0.9004999995231628
          0.33410000801086426 -0.2809000015258789 0.8996999859809875 0.13439999520778656 -0.4507000148296356 0.8824999928474426
          0.009700000286102295 0.1843000054359436 0.9828000068664551 -0.6642000079154968 -0.42010000348091125 0.618399977684021
          -0.5471000075340271 -0.21819999814033508 0.8082000017166138 -0.6902999877929688 -0.3409999907016754 0.6381000280380249
          -0.36570000648498535 0.37700000405311584 -0.8510000109672546 -0.7476999759674072 0.3953000009059906 -0.5335999727249146
          -0.7333999872207642 0.3662000000476837 -0.5727999806404114 -0.9509000182151794 -0.2838999927043915 -0.12319999933242798
          -0.9634000062942505 -0.2563000023365021 -0.07890000194311142 -0.9563999772071838 -0.2906999886035919 0.027300000190734863
          0.025200000032782555 0.1745000034570694 -0.9843000173568726 0.004999999888241291 0.21449999511241913 -0.9767000079154968
          -0.07339999824762344 0.20149999856948853 -0.9767000079154968 -0.025800000876188278 -0.03579999879002571 0.9990000128746033
          -0.07079999893903732 -0.14569999277591705 0.9868000149726868 -0.1826999932527542 -0.1445000022649765 0.9725000262260437
          0.8571000099182129 0.4747999906539917 -0.19979999959468842 0.8776999711990356 0.4375 -0.19529999792575836
          0.8468999862670898 0.48570001125335693 -0.21639999747276306 0.39320001006126404 -0.8772000074386597 -0.2754000127315521
          0.3986000120639801 -0.8938999772071838 -0.20489999651908875 0.40610000491142273 -0.8862000107765198 -0.2231999933719635
          -0.3249000012874603 -0.27379998564720154 0.9053000211715698 -0.3531999886035919 -0.27090001106262207 0.8955000042915344
          -0.2888000011444092 -0.25429999828338623 0.9229999780654907 -0.6704000234603882 -0.2824000120162964 -0.6861000061035156
          -0.7142000198364258 -0.3116999864578247 -0.6266999840736389 -0.6481000185012817 -0.27730000019073486 -0.7092999815940857
          -0.7900000214576721 -0.5138999819755554 -0.3343999981880188 -0.7896000146865845 -0.43380001187324524 -0.4341000020503998
          -0.7955999970436096 -0.38260000944137573 -0.4697999954223633 0.705299973487854 0.4246000051498413 -0.5677000284194946
          0.7509999871253967 0.48010000586509705 -0.45329999923706055 0.8098999857902527 0.2500999867916107 -0.5306000113487244
          0.4936000108718872 0.7003999948501587 0.515500009059906 0.5333999991416931 0.6879000067710876 0.49219998717308044
          0.5439000129699707 0.7584999799728394 0.3589000105857849 -0.3319000005722046 -0.13899999856948853 0.9330000281333923
          -0.2939999997615814 -0.2879999876022339 0.9114000201225281 -0.23440000414848328 -0.3384000062942505 0.911300003528595
          -0.26499998569488525 -0.16349999606609344 0.9502999782562256 -0.18320000171661377 -0.3529999852180481 0.9175000190734863
          -0.1712000072002411 -0.21819999814033508 0.9607999920845032 0.704200029373169 0.5960999727249146 -0.385699987411499
          0.7660999894142151 0.635699987411499 -0.09520000219345093 0.6381000280380249 0.7067999839782715 -0.30550000071525574
          0.7573000192642212 0.4036000072956085 0.5134000182151794 0.944100022315979 0.3296000063419342 -0.0066999997943639755
          0.8766000270843506 0.27900001406669617 0.3919999897480011 -0.9961000084877014 0.04399999976158142 0.07620000094175339
          -0.5924999713897705 -0.032600000500679016 -0.8048999905586243 -0.46380001306533813 0.4546000063419342 -0.7603999972343445
          -0.22930000722408295 -0.9182999730110168 0.32260000705718994 -0.047200001776218414 -0.879800021648407 0.4731000065803528
          0.4237000048160553 -0.8907999992370605 -0.16410000622272491 0.5343000292778015 -0.008999999612569809 -0.8452000021934509
          -0.3594000041484833 -0.2451000064611435 -0.9003999829292297 0.8741999864578247 -0.3149000108242035 -0.3695000112056732
          0.9053000211715698 -0.4097000062465668 -0.11230000108480453 0.8083000183105469 -0.33390000462532043 -0.48489999771118164
          0.4853000044822693 0.059700001031160355 -0.8723000288009644 0.5929999947547913 0.0885000005364418 -0.8003000020980835
          0.5990999937057495 0.09629999846220016 -0.7949000000953674 0.839900016784668 0.25699999928474426 -0.4779999852180481
          0.8963000178337097 0.20229999721050262 -0.3944999873638153 0.8995000123977661 0.07360000163316727 -0.4307999908924103
          -0.23729999363422394 0.3034000098705292 0.9228000044822693 -0.2578999996185303 0.33480000495910645 0.9063000082969666
          -0.1876000016927719 0.19869999587535858 0.961899995803833 0.1128000020980835 0.1956000030040741 0.9742000102996826
          0.05889999866485596 0.3610999882221222 0.9307000041007996 -0.19089999794960022 -0.03530000150203705 0.9810000061988831
          -0.21160000562667847 0.15639999508857727 0.9648000001907349 -0.012900000438094139 0.09030000120401382 0.9958000183105469
          0.20999999344348907 0.249099999666214 0.9453999996185303 0.420199990272522 0.5170000195503235 0.7458000183105469
          0.2782999873161316 0.4171999990940094 0.8651000261306763 -0.18039999902248383 -0.310699999332428 0.9332000017166138
          -0.13819999992847443 -0.15940000116825104 0.9775000214576721 -0.38269999623298645 -0.3490999937057495 0.855400025844574
          0.017000000923871994 0.011900000274181366 0.9998000264167786 0.09239999949932098 -0.043800000101327896 0.9947999715805054
          -0.6237000226974487 -0.19529999792575836 0.7569000124931335 -0.5788000226020813 0.07450000196695328 0.8120999932289124
          -0.3003000020980835 0.0044999998062849045 0.9538000226020813 -0.1290999948978424 -0.9679999947547913 -0.2150000035762787
          -0.18060000240802765 -0.9799000024795532 -0.0851999968290329 -0.02419999986886978 -0.9954000115394592 -0.09260000288486481
          0.6133000254631042 0.11060000211000443 -0.7820000052452087 0.3955000042915344 -0.1987999975681305 -0.8967000246047974
          -0.07750000059604645 0.2152000069618225 -0.9735000133514404 0.4487000107765198 0.6563000082969666 -0.6065999865531921
          0.49970000982284546 0.5419999957084656 -0.6757000088691711 0.5503000020980835 0.5896999835968018 -0.5911999940872192
          -0.9340000152587891 0.33500000834465027 0.12409999966621399 -0.9805999994277954 0.14409999549388885 -0.13269999623298645
          -0.9800999760627747 0.1889999955892563 -0.06129999831318855 -0.8138999938964844 0.5174000263214111 0.26420000195503235
          -0.7797999978065491 0.4587000012397766 0.4260999858379364 -0.6820999979972839 0.5579000115394592 0.47269999980926514
          0.35519999265670776 -0.916700005531311 -0.18299999833106995 0.30469998717308044 -0.916700005531311 -0.25839999318122864
          0.3840000033378601 -0.8980000019073486 -0.21480000019073486 0.8436999917030334 0.49129998683929443 -0.21629999577999115
          0.8651000261306763 0.4530999958515167 -0.2151000052690506 0.89410001039505 0.43560001254081726 -0.10409999638795853
          -0.8672999739646912 -0.49320000410079956 -0.06790000200271606 -0.833299994468689 -0.48809999227523804 0.2597000002861023
          -0.8472999930381775 -0.5267999768257141 0.06790000200271606 -0.133200004696846 0.1793999969959259 -0.9746999740600586
          0.2402999997138977 0.25279998779296875 -0.9372000098228455 0.2671999931335449 0.3677999973297119 -0.8906999826431274
          0.3837999999523163 -0.8902000188827515 -0.24549999833106995 0.12460000067949295 -0.9830999970436096 0.13449999690055847
          0.24770000576972961 -0.9678999781608582 0.04259999841451645 -0.18000000715255737 -0.8440999984741211 -0.5049999952316284
          0.20730000734329224 -0.961899995803833 -0.17829999327659607 0.21529999375343323 -0.9429000020027161 -0.2540999948978424
          -0.8920000195503235 0.03200000151991844 -0.45089998841285706 -0.9541000127792358 -0.023399999365210533 -0.2987000048160553
          -0.8780999779701233 0.34380000829696655 -0.3328000009059906 -0.05900000035762787 0.15150000154972076 -0.9866999983787537
          -0.05339999869465828 -0.1145000010728836 -0.9919999837875366 0.10180000215768814 0.16410000622272491 -0.9811999797821045
          -0.5447999835014343 0.492000013589859 -0.6790000200271606 -0.6406999826431274 0.35249999165534973 -0.6820999979972839
          -0.7864000201225281 0.2849000096321106 -0.5480999946594238 -0.33500000834465027 0.24500000476837158 0.9097999930381775
          -0.1257999986410141 0.4352000057697296 0.8914999961853027 -0.15320000052452087 0.48170000314712524 0.8629000186920166
          -0.42410001158714294 -0.6574000120162964 0.6229000091552734 -0.3197999894618988 -0.9341999888420105 -0.1582999974489212
          -0.6783000230789185 -0.7289000153541565 0.09260000288486481 -0.6345000267028809 -0.7531999945640564 0.17350000143051147
          -0.16930000483989716 -0.1517000049352646 0.973800003528595 -0.6830000281333923 -0.6940000057220459 0.22779999673366547
          0.8597999811172485 0.5077999830245972 -0.054099999368190765 0.8179000020027161 0.5619000196456909 0.12389999628067017
          0.772599995136261 -0.1469999998807907 0.6176000237464905 0.11330000311136246 -0.2134000062942505 -0.9703999757766724
          0.33390000462532043 -0.34299999475479126 -0.878000020980835 0.18799999356269836 -0.33889999985694885 -0.9218000173568726
          -0.5565000176429749 -0.593999981880188 0.5809000134468079 -0.5034000277519226 -0.5716999769210815 0.6478999853134155
          -0.5202999711036682 -0.5774000287055969 0.6292999982833862 -0.6639999747276306 -0.7473999857902527 0.01940000057220459
          -0.6945000290870667 -0.7168999910354614 0.0608999989926815 -0.6888999938964844 -0.7153000235557556 0.11749999970197678
          -0.9602000117301941 -0.2791999876499176 -0.011699999682605267 -0.9315999746322632 -0.2680000066757202 -0.24560000002384186
          -0.9570000171661377 -0.2410999983549118 -0.16140000522136688 -0.871999979019165 0.13609999418258667 0.4702000021934509
          -0.9541000127792358 -0.2345000058412552 -0.18610000610351562 -0.9746000170707703 0.07039999961853027 0.2126999944448471
          0.5990999937057495 -0.26989999413490295 0.7537999749183655 0.5889000296592712 -0.1429000049829483 0.7954999804496765
          0.6184999942779541 0.11969999969005585 0.7766000032424927 0.448199987411499 0.6741999983787537 0.5870000123977661
          0.5389999747276306 0.5940999984741211 0.597100019454956 0.632099986076355 0.4832000136375427 0.6057999730110168
          -0.38179999589920044 -0.06120000034570694 0.9222000241279602 -0.28760001063346863 -0.14390000700950623 0.9469000101089478
          -0.4747999906539917 -0.06210000067949295 0.8779000043869019 0.06159999966621399 0.6660000085830688 0.743399977684021
          0.0006000000284984708 0.7771999835968018 0.6292999982833862 -0.05779999867081642 0.7709000110626221 0.6342999935150146
          -0.6019999980926514 -0.18209999799728394 -0.777400016784668 -0.6938999891281128 -0.2303999960422516 -0.682200014591217
          -0.6359999775886536 -0.18160000443458557 -0.75 -0.2272000014781952 -0.00930000003427267 -0.973800003528595
          -0.2912999987602234 -0.04340000078082085 -0.9556000232696533 -0.06650000065565109 -0.00139999995008111 -0.9977999925613403
          0.914900004863739 0.4034000039100647 -0.016100000590085983 0.8389999866485596 0.5394999980926514 0.07069999724626541
          0.907800018787384 0.38339999318122864 -0.17010000348091125 0.8270999789237976 0.4424999952316284 0.3465000092983246
          0.8216999769210815 0.36500000953674316 0.4375999867916107 0.8637999892234802 0.49559998512268066 0.09099999815225601
          0.906000018119812 -0.4097000062465668 0.10589999705553055 0.0020000000949949026 -0.7283999919891357 0.6851000189781189
          0.603600025177002 -0.18490000069141388 0.775600016117096 0.585099995136261 0.4828000068664551 -0.6516000032424927
          0.5044999718666077 0.42309999465942383 -0.7526000142097473 0.5845999717712402 0.5974000096321106 -0.5489000082015991
          -0.506600022315979 0.6312000155448914 0.5874000191688538 -0.5364000201225281 0.5178999900817871 0.6664000153541565
          -0.43549999594688416 0.5637000203132629 0.7019000053405762 -0.15639999508857727 -0.7746999859809875 -0.6126999855041504
          -0.0005000000237487257 -0.36329999566078186 -0.9316999912261963 -0.19769999384880066 -0.2567000091075897 -0.9459999799728394
          -0.9000999927520752 -0.4350000023841858 -0.026100000366568565 -0.3440000116825104 -0.669700026512146 0.6581000089645386
          -0.1525000035762787 -0.9872999787330627 -0.04580000042915344 0.5702999830245972 -0.04010000079870224 -0.8203999996185303
          0.5755000114440918 0.04280000180006027 -0.8166999816894531 0.46160000562667847 -0.031300000846385956 -0.8865000009536743
          -0.8730000257492065 -0.0010999999940395355 -0.4876999855041504 -0.4422000050544739 -0.4927000105381012 -0.7494999766349792
          -0.9085999727249146 -0.21729999780654907 -0.35679998993873596 0.6642000079154968 -0.7465000152587891 -0.04050000011920929
          0.7718999981880188 -0.6014000177383423 -0.20630000531673431 0.8032000064849854 -0.5928999781608582 -0.05730000138282776
          0.5705000162124634 0.8180000185966492 0.0731000006198883 0.9656999707221985 0.12099999934434891 -0.2298000007867813
          0.8769999742507935 -0.05559999868273735 0.4772000014781952 0.9472000002861023 -0.23800000548362732 0.21469999849796295
          0.8614000082015991 -0.3912999927997589 0.3239000141620636 0.73089998960495 0.4657999873161316 -0.49889999628067017
          0.9995999932289124 0.015799999237060547 -0.02250000089406967 -0.5224999785423279 -0.048900000751018524 -0.8511999845504761
          -0.6122999787330627 -0.07909999787807465 -0.7867000102996826 -0.7497000098228455 -0.08229999989271164 -0.6565999984741211
          0.29840001463890076 0.10620000213384628 0.9484999775886536 0.44999998807907104 0.18279999494552612 0.8741000294685364
          0.5250999927520752 0.1542000025510788 0.8370000123977661 0.7059000134468079 0.14830000698566437 0.6926000118255615
          0.6175000071525574 0.10779999941587448 0.77920001745224 0.7003999948501587 0.23199999332427979 0.675000011920929
          -0.4869000017642975 -0.31949999928474426 0.8129000067710876 -0.522599995136261 -0.35899999737739563 0.7732999920845032
          -0.4043000042438507 -0.40230000019073486 0.821399986743927 -0.9160000085830688 -0.3449999988079071 -0.20469999313354492
          -0.9027000069618225 -0.35839998722076416 -0.2379000037908554 0.09139999747276306 0.9745000004768372 -0.20499999821186066
          0.17229999601840973 0.5960000157356262 -0.7843000292778015 0.44929999113082886 0.8104000091552734 -0.375900000333786
          -0.8016999959945679 -0.1501999944448471 0.578499972820282 -0.8442000150680542 -0.48399999737739563 0.2305999994277954
          -0.7922999858856201 -0.47839999198913574 0.37880000472068787 0.21279999613761902 0.9391000270843506 -0.27000001072883606
          -0.5976999998092651 0.7261000275611877 -0.3400000035762787 -0.5436000227928162 0.7364000082015991 -0.4027999937534332
          -0.2775999903678894 0.15729999542236328 0.947700023651123 -0.7275000214576721 -0.18860000371932983 0.6596999764442444
          -0.9857000112533569 -0.1256999969482422 0.1120000034570694 0.36730000376701355 0.05490000173449516 -0.9284999966621399
          0.25209999084472656 0.48919999599456787 -0.8349999785423279 -0.08049999922513962 0.19529999792575836 -0.977400004863739
          -0.4875999987125397 0.7907999753952026 -0.3700000047683716 0.0215000007301569 0.9501000046730042 -0.31119999289512634
          -0.11749999970197678 0.9828000068664551 -0.14270000159740448 0.2538999915122986 -0.9341999888420105 0.2506999969482422
          -0.22550000250339508 -0.9355999827384949 -0.27160000801086426 0.04129999876022339 -0.9991000294685364 0
          0.2628999948501587 -0.7268000245094299 0.6345999836921692 0.5497000217437744 -0.5728999972343445 0.6079000234603882
          0.39149999618530273 -0.44110000133514404 0.8076000213623047 0.26759999990463257 -0.2962999939918518 -0.9168999791145325
          0.13279999792575836 0.18060000240802765 -0.9746000170707703 -0.40849998593330383 0.027499999850988388 -0.9122999906539917
          0.3255999982357025 0.3407999873161316 -0.8819000124931335 0.30480000376701355 0.3483999967575073 -0.8863999843597412
          0.36320000886917114 0.34049999713897705 -0.8672999739646912 0.3427000045776367 -0.8910999894142151 -0.2973000109195709
          0.3301999866962433 -0.9359999895095825 -0.1216999962925911 0.28040000796318054 -0.9013000130653381 -0.3301999866962433
          0.35260000824928284 -0.9261999726295471 -0.1331000030040741 0.3596000075340271 -0.9059000015258789 -0.22349999845027924
          0.3343999981880188 -0.9279000163078308 -0.1647000014781952 -0.21719999611377716 -0.9682999849319458 0.12319999933242798
          -0.05249999836087227 -0.9986000061035156 -0.0010999999940395355 0.23319999873638153 -0.9429000020027161 -0.23759999871253967
          0.7639999985694885 -0.20520000159740448 -0.6116999983787537 0.4388999938964844 -0.6270999908447266 -0.6434999704360962
          0.6662999987602234 -0.617900013923645 -0.41749998927116394 0.9873999953269958 0.09080000221729279 -0.12939999997615814
          0.9871000051498413 0.08150000125169754 -0.13760000467300415 0.9902999997138977 0.06369999796152115 -0.12309999763965607
          0.7297000288963318 0.6510000228881836 -0.2093999981880188 0.6468999981880188 0.7074000239372253 -0.2847000062465668
          0.6276999711990356 0.7300000190734863 -0.2705000042915344 0.40869998931884766 -0.8725000023841858 -0.2676999866962433
          0.3357999920845032 -0.9297000169754028 -0.15129999816417694 0.3758000135421753 -0.9236000180244446 -0.07620000094175339
          0.32249999046325684 -0.8349000215530396 -0.44609999656677246 0.27239999175071716 -0.9455999732017517 -0.17790000140666962
          0.37619999051094055 -0.9200000166893005 -0.11020000278949738 -0.963699996471405 -0.250900000333786 -0.09109999984502792
          -0.7712000012397766 -0.14110000431537628 0.6208000183105469 -0.7303000092506409 -0.20749999582767487 0.6509000062942505
          -0.5253000259399414 -0.2542000114917755 0.8119999766349792 -0.6114000082015991 -0.5034000277519226 0.6104999780654907
          -0.6496999859809875 -0.48750001192092896 0.5834000110626221 -0.5812000036239624 -0.5103999972343445 0.6338000297546387
          -0.011300000362098217 -0.028300000354647636 0.9994999766349792 0.09989999979734421 -0.056299999356269836 0.993399977684021
          -0.125 -0.1339000016450882 0.9830999970436096 0.9031000137329102 0.4291999936103821 0.013299999758601189
          0.9384999871253967 0.3416999876499176 -0.04910000041127205 0.9452000260353088 0.32499998807907104 -0.029600000008940697
          0.11460000276565552 0.041600000113248825 0.9925000071525574 -0.6895999908447266 -0.5414999723434448 0.48089998960494995
          0.037700001150369644 -0.5034000277519226 0.8633000254631042 -0.14710000157356262 -0.5382000207901001 0.8299000263214111
          -0.4034000039100647 0.1762000024318695 -0.8978999853134155 -0.23270000517368317 0.00419999985024333 -0.9725000262260437
          0.30250000953674316 0.10930000245571136 -0.9469000101089478 0.22030000388622284 0.07000000029802322 -0.9728999733924866
          0.3878999948501587 -0.3375999927520752 -0.857699990272522 -0.46140000224113464 0.1111999973654747 -0.8802000284194946