<?xml version="1.0"?>
<VTKFile type="PolyData" version="0.1" byte_order="LittleEndian" header_type="UInt32" compressor="vtkZLibDataCompressor">
  <PolyData>
    <FieldData>
      <Array type="String" Name="MaterialNames" NumberOfTuples="1" format="ascii">
        109 97 116 101 114 105 97 108 95 48 0
      </Array>
      <Array type="String" Name="MaterialLibraries" NumberOfTuples="1" format="ascii">
        109 97 116 101 114 105 97 108 46 109 116 108 0
      </Array>
    </FieldData>
    <Piece NumberOfPoints="13799" NumberOfVerts="0" NumberOfLines="0" NumberOfStrips="0" NumberOfPolys="27503">
      <PointData Normals="Normals">
        <DataArray type="Float32" Name="Normals" NumberOfComponents="3" format="ascii" RangeMin="0.999891628243573" RangeMax="1.0000647953630106">
          -0.47609999775886536 -0.8090999722480774 0.3443000018596649 -0.5134000182151794 -0.7524999976158142 0.4124999940395355
          -0.932200014591217 -0.23469999432563782 0.275299996137619 -0.10570000112056732 -0.9375 0.3314000070095062
          -0.7533000111579895 -0.6330000162124634 0.17810000479221344 -0.9915000200271606 -0.013299999758601189 0.12939999997615814
          -0.13109999895095825 -0.890999972820282 0.4345000088214874 -0.22750000655651093 -0.9470999836921692 0.2264000028371811
          -0.7688000202178955 -0.6395000219345093 -0.00279999990016222 -0.9977999925613403 -0.062199998646974564 0.022700000554323196
          -0.23270000517368317 -0.9724000096321106 0.01679999940097332 -0.8023999929428101 -0.5789999961853027 -0.1446000039577484
          -0.9807000160217285 -0.10000000149011612 -0.16820000112056732 -0.28999999165534973 -0.9569000005722046 -0.013100000098347664
          -0.8942999839782715 -0.42170000076293945 -0.149399995803833 -0.965499997138977 -0.14579999446868896 -0.21539999544620514
          -0.38100001215934753 -0.8999999761581421 0.2117999941110611 -0.9509999752044678 -0.12839999794960022 -0.28139999508857727
          -0.7113999724388123 -0.7027000188827515 -0.013500000350177288 -0.17030000686645508 -0.9578999876976013 0.23119999468326569
          -0.8547999858856201 -0.4300999939441681 -0.2903999984264374 -0.9004999995231628 -0.14339999854564667 -0.4104999899864197
          -0.30329999327659607 -0.9519000053405762 0.04340000078082085 -0.925599992275238 -0.15240000188350677 -0.3463999927043915
          -0.45410001277923584 -0.853600025177002 -0.25519999861717224 0.1152999997138977 -0.9883000254631042 -0.09939999878406525
          -0.42010000348091125 -0.6256999969482422 -0.6572999954223633 -0.44290000200271606 -0.8881000280380249 0.12290000170469284
          -0.2849000096321106 -0.6851000189781189 0.6704000234603882 -0.830299973487854 -0.2985000014305115 0.4706999957561493
          -0.17180000245571136 -0.9692000150680542 0.17649999260902405 -0.7103999853134155 -0.5982999801635742 0.37049999833106995
          -0.8737000226974487 -0.07370000332593918 0.48089998960494995 -0.9049000144004822 -0.04280000180006027 0.4235000014305115
          -0.18619999289512634 -0.9433000087738037 0.27469998598098755 -0.9714999794960022 0.10180000215768814 0.21410000324249268
          -0.9876000285148621 0.05999999865889549 0.14489999413490295 -0.0794999971985817 -0.9758999943733215 0.20309999585151672
          0.00989999994635582 -0.9941999912261963 0.10679999738931656 -0.9936000108718872 0.04190000146627426 0.10490000247955322
          -0.9793000221252441 0.062300000339746475 0.1923999935388565 -0.9972000122070312 0.021400000900030136 0.07190000265836716
          -0.11590000241994858 -0.9708999991416931 0.2092999964952469 -0.9962999820709229 -0.027300000190734863 -0.08079999685287476
          -0.9843000173568726 0.013000000268220901 -0.17579999566078186 -0.9666000008583069 -0.0738999992609024 -0.2451000064611435
          -0.9397000074386597 -0.09939999878406525 -0.3271999955177307 -0.9591000080108643 -0.08420000225305557 -0.2702000141143799
          -0.10109999775886536 -0.9947999715805054 0.0071000000461936 -0.8934999704360962 -0.09200000017881393 -0.43950000405311584
          -0.16680000722408295 -0.9811999797821045 -0.09669999778270721 -0.8119000196456909 -0.13230000436306 -0.5687000155448914
          -0.6044999957084656 -0.4779999852180481 -0.6371999979019165 -0.504800021648407 -0.8575000166893005 -0.09880000352859497
          -0.1768999993801117 -0.9708999991416931 -0.1615000069141388 -0.6381000280380249 -0.392300009727478 -0.6625000238418579
          -0.17800000309944153 -0.7488999962806702 -0.6383000016212463 -0.8357999920845032 0.0027000000700354576 0.5490000247955322
          -0.7432000041007996 0.04280000180006027 0.6676999926567078 -0.8187999725341797 0.027400000020861626 0.5734000205993652
          -0.6299999952316284 -0.2459000051021576 0.7365999817848206 -0.13089999556541443 -0.9904999732971191 0.040699999779462814
          -0.4025999903678894 -0.8116000294685364 0.42309999465942383 -0.7128000259399414 -0.4350000023841858 0.5501999855041504
          -0.21979999542236328 -0.9193000197410583 0.3264000117778778 -0.8953999876976013 -0.0778999999165535 0.438400000333786
          -0.8230999708175659 0.0006000000284984708 0.5679000020027161 -0.9042999744415283 -0.06159999966621399 0.4223000109195709
          -0.9728000164031982 -0.022199999541044235 0.2305999994277954 -0.9796000123023987 0.002899999963119626 0.20059999823570251
          -0.9878000020980835 -0.052400000393390656 0.1468999981880188 -0.9984999895095825 -0.002899999963119626 0.054999999701976776
          -0.06210000067949295 -0.9977999925613403 0.02070000022649765 -0.9861999750137329 -0.1031000018119812 -0.12929999828338623
          -0.054999999701976776 -0.9677000045776367 0.24609999358654022 -0.9598000049591064 -0.06710000336170197 -0.272599995136261
          0.21789999306201935 -0.9563000202178955 0.19470000267028809 -0.9151999950408936 -0.09560000151395798 -0.39149999618530273
          -0.8970000147819519 -0.09290000051259995 -0.43209999799728394 -0.8816999793052673 -0.066600002348423 -0.46700000762939453
          -0.035999998450279236 -0.9947999715805054 0.0949999988079071 -0.8518000245094299 -0.03189999982714653 -0.5228000283241272
          -0.7879999876022339 -0.1670999974012375 -0.5924999713897705 -0.7854999899864197 -0.04259999841451645 -0.6173999905586243
          -0.12999999523162842 -0.9914000034332275 -0.014299999922513962 -0.6536999940872192 -0.13289999961853027 -0.7448999881744385
          -0.45100000500679016 -0.1738000065088272 -0.8754000067710876 -0.43059998750686646 -0.25270000100135803 -0.8665000200271606
          -0.43860000371932983 -0.7653999924659729 -0.4708999991416931 -0.11630000174045563 -0.9821000099182129 -0.14800000190734863
          -0.5360999703407288 -0.5726000070571899 -0.6202999949455261 -0.5372999906539917 -0.6690999865531921 0.5134000182151794
          -0.3521000146865845 -0.638700008392334 0.6841999888420105 -0.7473999857902527 -0.2529999911785126 0.614300012588501
          -0.20669999718666077 -0.8619999885559082 0.4629000127315521 -0.717199981212616 -0.06629999727010727 0.6937000155448914
          -0.7401999831199646 -0.053700000047683716 0.670199990272522 -0.7462000250816345 -0.01510000042617321 0.6654999852180481
          0.2515999972820282 -0.9577999711036682 0.1387999951839447 -0.04839999973773956 -0.9176999926567078 0.39430001378059387
          -0.7050999999046326 0.045899998396635056 0.7074999809265137 -0.7896000146865845 0.02370000071823597 0.613099992275238
          -0.8421000242233276 -0.13259999454021454 0.5227000117301941 -0.8867999911308289 0.05490000173449516 0.45879998803138733
          0.015300000086426735 -0.9890999794006348 0.1462000012397766 -0.9724000096321106 0.006500000134110451 0.23330000042915344
          -0.9473000168800354 0.002400000113993883 0.32030001282691956 -0.9664999842643738 -0.002400000113993883 0.2565000057220459
          -0.9848999977111816 0.02459999918937683 0.17110000550746918 0.2930000126361847 -0.9412999749183655 0.16760000586509705
          -0.9994999766349792 0.017100000753998756 0.024900000542402267 0.3416999876499176 -0.9397000074386597 -0.010499999858438969
          -0.9962999820709229 0.018200000748038292 -0.08410000056028366 0.3643999993801117 -0.9312000274658203 0.010700000450015068
          -0.9898999929428101 -0.018300000578165054 -0.14030000567436218 -0.9864000082015991 0.025200000032782555 -0.1624000072479248
          0.4544000029563904 -0.8712999820709229 0.18529999256134033 -0.9125000238418579 -0.09529999643564224 -0.3977999985218048
          0.26350000500679016 -0.9279999732971191 0.26330000162124634 -0.8693000078201294 -0.09860000014305115 -0.4844000041484833
          -0.8592000007629395 -0.06759999692440033 -0.5072000026702881 -0.08429999649524689 -0.9614999890327454 0.26159998774528503
          -0.7919999957084656 -0.057999998331069946 -0.607699990272522 -0.7418000102043152 -0.022600000724196434 -0.670199990272522
          -0.1136000007390976 -0.9933000206947327 -0.019500000402331352 -0.11670000106096268 -0.9932000041007996 -0.00279999990016222
          -0.482699990272522 -0.07639999687671661 -0.8723999857902527 -0.3741999864578247 -0.11320000141859055 -0.9204000234603882
          -0.5504000186920166 -0.16060000658035278 -0.8192999958992004 -0.266400009393692 -0.7764999866485596 -0.570900022983551
          -0.6496000289916992 -0.17579999566078186 -0.7396000027656555 -0.47679999470710754 -0.1316000074148178 -0.8690999746322632
          -0.3125999867916107 -0.9477999806404114 0.061900001019239426 -0.8716999888420105 -0.48339998722076416 0.08070000261068344
          -0.21850000321865082 -0.7433000206947327 -0.6322000026702881 0.3075000047683716 -0.9498999714851379 0.05640000104904175
          -0.47369998693466187 -0.850600004196167 0.2281000018119812 -0.44190001487731934 -0.5885999798774719 0.6769000291824341
          -0.7646999955177307 -0.3246000111103058 0.5565000176429749 -0.1873999983072281 -0.9728999733924866 0.13500000536441803
          -0.6115000247955322 -0.1396999955177307 0.7788000106811523 -0.6937000155448914 -0.02979999966919422 0.7196999788284302
          -0.056699998676776886 -0.9866999983787537 0.15230000019073486 -0.7888000011444092 -0.061900001019239426 0.6115000247955322
          -0.7760000228881836 -0.09019999951124191 0.6241999864578247 0.2770000100135803 -0.9595000147819519 0.05130000039935112
          -0.7732999920845032 -0.06360000371932983 0.6308000087738037 -0.8198999762535095 -0.04610000178217888 0.5705999732017517
          0.21879999339580536 -0.9581000208854675 0.18469999730587006 -0.8813999891281128 0.01360000018030405 0.47209998965263367
          -0.84579998254776 -0.025499999523162842 0.5328999757766724 -0.9182000160217285 -0.015699999406933784 0.39570000767707825
          -0.0640999972820282 -0.9660999774932861 0.2498999983072281 -0.9745000004768372 0.062300000339746475 0.21559999883174896
          -0.9740999937057495 0.07460000365972519 0.2134000062942505 -0.9739000201225281 -0.05649999901652336 0.21960000693798065
          -0.9749000072479248 -0.07129999995231628 0.21060000360012054 0.6276999711990356 -0.771399974822998 -0.10369999706745148
          -0.9962999820709229 0.04230000078678131 0.07479999959468842 -0.9979000091552734 0.01720000058412552 0.062300000339746475
          0.3788999915122986 -0.9253000020980835 0.014299999922513962 -0.9972000122070312 -0.009200000204145908 -0.07429999858140945
          -0.9961000084877014 0.020600000396370888 -0.08529999852180481 0.8518999814987183 -0.5235000252723694 -0.014299999922513962
          0.9983000159263611 0.04010000079870224 0.042100001126527786 0.609499990940094 -0.5698999762535095 -0.5511000156402588
          -0.9878000020980835 -0.012799999676644802 -0.1551000028848648 -0.9889000058174133 -0.048700001090765 -0.14030000567436218
          0.90420001745224 -0.40459999442100525 0.13689999282360077 0.9599000215530396 -0.23119999468326569 0.15809999406337738
          -0.9836000204086304 -0.06930000334978104 -0.1664000004529953 -0.9746999740600586 -0.0203000009059906 -0.22259999811649323
          0.9017000198364258 -0.3544999957084656 0.24740000069141388 0.6236000061035156 -0.4648999869823456 0.6284999847412109
          -0.9210000038146973 -0.059700001031160355 -0.3849000036716461 -0.9415000081062317 -0.0006000000284984708 -0.3370000123977661
          0.3824999928474426 -0.6419000029563904 0.6644999980926514 0.19460000097751617 -0.8389999866485596 0.5080999732017517
          -0.8910999894142151 -0.019099999219179153 -0.45339998602867126 -0.8708999752998352 -0.042399998754262924 -0.4896000027656555
          -0.03970000147819519 -0.957099974155426 0.28700000047683716 0.05990000069141388 -0.8672999739646912 0.49410000443458557
          -0.7774999737739563 -0.08669999986886978 -0.6229000091552734 -0.18780000507831573 -0.9661999940872192 0.17630000412464142
          -0.5784000158309937 -0.03290000185370445 -0.8151000142097473 -0.3544999957084656 -0.05180000141263008 -0.9336000084877014
          -0.5716999769210815 -0.15150000154972076 -0.8062999844551086 -0.5950000286102295 -0.10119999945163727 -0.7972999811172485
          -0.6664999723434448 -0.15049999952316284 -0.7300999760627747 -0.5187000036239624 -0.2013999968767166 -0.8309000134468079
          -0.48890000581741333 -0.19619999825954437 -0.8500000238418579 -0.7142999768257141 -0.46050000190734863 -0.5268999934196472
          -0.6158000230789185 -0.2094999998807907 -0.7595000267028809 -0.008899999782443047 -0.9965000152587891 0.0835999995470047
          0.27320000529289246 -0.9476000070571899 -0.1656000018119812 -0.027499999850988388 -0.45829999446868896 -0.8883000016212463
          -0.302700012922287 -0.2705000042915344 0.9139000177383423 -0.6121000051498413 0.04309999942779541 0.7896000146865845
          -0.10140000283718109 -0.9811000227928162 0.16429999470710754 -0.11760000139474869 -0.845300018787384 0.5210999846458435
          -0.6972000002861023 -0.053300000727176666 0.7148000001907349 -0.6126999855041504 -0.035999998450279236 0.7894999980926514
          -0.6884999871253967 -0.053700000047683716 0.7232000231742859 -0.6097000241279602 -0.00430000014603138 0.7925999760627747
          -0.8055999875068665 -0.125 0.5791000127792358 -0.7505000233650208 -0.05609999969601631 0.6583999991416931
          -0.784600019454956 -0.09669999778270721 0.6123999953269958 -0.819100022315979 -0.15299999713897705 0.5527999997138977
          -0.8575000166893005 -0.07680000364780426 0.5085999965667725 0.0851999968290329 -0.9962999820709229 -0.0031999999191612005
          -0.9190000295639038 -0.0828000009059906 0.3853999972343445 0.320499986410141 -0.9390000104904175 0.12449999898672104
          -0.9771999716758728 -0.11550000309944153 0.17810000479221344 -0.9735999703407288 -0.09480000287294388 0.2076999992132187
          0.11410000175237656 -0.984000027179718 -0.13680000603199005 -0.9955999851226807 -0.04569999873638153 0.08129999786615372
          0.7232000231742859 -0.6384000182151794 0.26330000162124634 0.9229000210762024 -0.3837999999523163 -0.029999999329447746
          0.6272000074386597 -0.3458000123500824 -0.6977999806404114 0.3206000030040741 -0.7423999905586243 -0.5881999731063843
          -0.9998000264167786 0.016100000590085983 -0.004100000020116568 0.4828999936580658 -0.14740000665187836 0.8632000088691711
          0.17399999499320984 -0.8603000044822693 0.4790000021457672 -0.29910001158714294 -0.940500020980835 0.1606999933719635
          0.1808999925851822 -0.9650999903678894 0.1889999955892563 -0.9983000159263611 0.0364999994635582 -0.045499999076128006
          0.9847999811172485 0.17149999737739563 0.02710000053048134 0.9876999855041504 0.13500000536441803 0.0786999985575676
          0.48339998722076416 0.17270000278949738 -0.8580999970436096 -0.5895000100135803 -0.16529999673366547 -0.7906000018119812
          -0.4327000081539154 -0.8823000192642212 -0.1850000023841858 -0.821399986743927 -0.147599995136261 -0.5508000254631042
          0.04780000075697899 -0.5016000270843506 -0.8636999726295471 -0.9977999925613403 0.03290000185370445 -0.05660000070929527
          0.8032000064849854 0.06800000369548798 0.59170001745224 0.930899977684021 -0.23019999265670776 0.2833000123500824
          -0.9736999869346619 -0.00019999999494757503 -0.22789999842643738 0.8675000071525574 0.019200000911951065 0.4970000088214874
          0.9545000195503235 -0.041200000792741776 0.2953000068664551 -0.9228000044822693 -0.014800000004470348 -0.384799987077713
          0.6323000192642212 0.053300000727176666 0.7728999853134155 0.697700023651123 -0.1712999939918518 0.6955999732017517
          0.4641999900341034 -0.23240000009536743 0.8547000288963318 -0.8730000257492065 0.020400000736117363 -0.48739999532699585
          -0.8698999881744385 0.007499999832361937 -0.49309998750686646 -0.8809000253677368 0.007799999788403511 -0.4731999933719635
          0.02630000002682209 -0.5216000080108643 0.8526999950408936 -0.8234000205993652 0.012199999764561653 -0.567300021648407
          -0.09650000184774399 -0.9948999881744385 0.02969999983906746 -0.6162999868392944 -0.06210000067949295 -0.785099983215332
          -0.43700000643730164 -0.0731000006198883 -0.8964999914169312 -0.5634999871253967 -0.10639999806880951 -0.8191999793052673
          -0.5450999736785889 -0.11890000104904175 -0.8299000263214111 -0.6546000242233276 -0.10599999874830246 -0.7483999729156494
          -0.5184999704360962 -0.07270000129938126 -0.8519999980926514 -0.5297999978065491 -0.11940000206232071 -0.8396999835968018
          -0.11909999698400497 -0.9921000003814697 -0.03830000013113022 -0.11029999703168869 -0.9930999875068665 -0.039799999445676804
          -0.5683000087738037 -0.10239999741315842 -0.8163999915122986 -0.5566999912261963 -0.1867000013589859 -0.8094000220298767
          -0.4023999869823456 -0.44020000100135803 -0.8026999831199646 -0.3402000069618225 -0.921999990940094 -0.18479999899864197
          -0.6238999962806702 -0.39250001311302185 -0.6757000088691711 -0.44920000433921814 -0.6601999998092651 -0.6018999814987183
          -0.32429999113082886 -0.8501999974250793 0.4147000014781952 -0.36959999799728394 -0.6459000110626221 0.6679999828338623
          -0.7008000016212463 -0.4528999924659729 0.5511000156402588 -0.6541000008583069 -0.07559999823570251 0.7526000142097473
          -0.6880000233650208 -0.02969999983906746 0.7250000238418579 -0.5479999780654907 -0.26759999990463257 0.7924000024795532
          -0.10000000149011612 -0.9638000130653381 0.24690000712871552 -0.6793000102043152 0.018300000578165054 0.7336000204086304
          -0.5350000262260437 -0.04960000142455101 0.8432999849319458 -0.7113999724388123 0.014600000344216824 0.7026000022888184
          -0.8544999957084656 -0.07479999959468842 0.5141000151634216 -0.8015000224113464 -0.040800001472234726 0.5965999960899353
          -0.8310999870300293 -0.08009999990463257 0.5503000020980835 -0.8988999724388123 -0.1348000019788742 0.41679999232292175
          -0.8422999978065491 -0.07980000227689743 0.5329999923706055 -0.9257000088691711 -0.08869999647140503 0.3677000105381012
          0.732200026512146 -0.6801000237464905 -0.03530000150203705 -0.9758999943733215 -0.11389999836683273 0.1860000044107437
          -0.9828000068664551 -0.08240000158548355 0.16500000655651093 0.8489999771118164 -0.43630000948905945 -0.2980000078678131
          0.8514000177383423 0.031300000846385956 -0.5235999822616577 0.9039999842643738 -0.35659998655319214 -0.23579999804496765
          -0.9966999888420105 -0.07429999858140945 0.03269999846816063 0.963100016117096 -0.2660999894142151 0.03869999945163727
          0.7491999864578247 -0.03539999946951866 -0.6614000201225281 -0.9962999820709229 -0.0674000009894371 -0.05299999937415123
          0.460999995470047 0.016499999910593033 0.8871999979019165 -0.17870000004768372 -0.5006999969482422 0.8468999862670898
          0.5918999910354614 -0.805899977684021 0.005900000222027302 -0.9943000078201294 -0.07119999825954437 -0.07900000363588333
          0.9945999979972839 0.10270000249147415 0.014999999664723873 0.5989999771118164 -0.03240000084042549 -0.800000011920929
          -0.11060000211000443 -0.05299999937415123 -0.9923999905586243 -0.6452999711036682 0.2791999876499176 -0.7110999822616577
          -0.2248000055551529 0.6499999761581421 -0.7258999943733215 0.7789000272750854 -0.44699999690055847 -0.4399000108242035
          -0.9986000061035156 0.01640000008046627 -0.05040000006556511 -0.9965000152587891 -0.012600000016391277 -0.08209999650716782
          0.701200008392334 0.052000001072883606 0.7110000252723694 0.5030999779701233 -0.2021999955177307 0.8402000069618225
          0.9521999955177307 -0.2460000067949295 0.1809999942779541 -0.20080000162124634 0.47839999198913574 -0.8549000024795532
          0.41690000891685486 0.2363000065088272 -0.8776999711990356 -0.977400004863739 0.032999999821186066 -0.2087000012397766
          -0.9696000218391418 0.00800000037997961 -0.24459999799728394 0.9916999936103821 0.08720000088214874 0.09449999779462814
          0.984499990940094 0.04690000042319298 0.16899999976158142 0.8320000171661377 -0.0071000000461936 -0.5546000003814697
          -0.9527999758720398 0.022700000554323196 -0.30250000953674316 -0.9290000200271606 0.03669999912381172 -0.3682999908924103
          0.6952999830245972 0.052000001072883606 0.7167999744415283 0.6855999827384949 0.07540000230073929 0.7239999771118164
          0.6403999924659729 0.05480000004172325 0.7660999894142151 0.63919997215271 0.0697999969124794 0.7659000158309937
          -0.8845000267028809 -0.04430000111460686 -0.4643000066280365 -0.871999979019165 0.008100000210106373 -0.4893999993801117
          0.2134999930858612 -0.003000000026077032 0.9768999814987183 -0.18700000643730164 -0.093299999833107 0.9779000282287598
          -0.10599999874830246 -0.48910000920295715 0.8657000064849854 0.28700000047683716 -0.9128999710083008 0.28999999165534973
          0.23649999499320984 -0.7598000168800354 0.6055999994277954 -0.8360999822616577 0.008999999612569809 -0.5483999848365784
          -0.79830002784729 0.03709999844431877 -0.6011000275611877 -0.010700000450015068 -0.9873999953269958 0.15780000388622284
          -0.7369999885559082 0.018300000578165054 -0.675599992275238 -0.4458000063896179 0.018300000578165054 -0.8949000239372253
          -0.5095000267028809 -0.08820000290870667 -0.85589998960495 -0.4869999885559082 -0.025100000202655792 -0.8730000257492065
          -0.11289999634027481 -0.993399977684021 -0.01759999990463257 -0.6011000275611877 -0.07119999825954437 -0.7960000038146973
          -0.527899980545044 -0.055399999022483826 -0.8475000262260437 -0.5501999855041504 -0.05779999867081642 -0.8330000042915344
          -0.6322000026702881 -0.08100000023841858 -0.7705000042915344 -0.5328999757766724 -0.08959999680519104 -0.8414000272750854
          -0.4108999967575073 -0.04529999941587448 -0.9104999899864197 -0.5619999766349792 -0.06260000169277191 -0.8246999979019165
          -0.14339999854564667 -0.7397000193595886 -0.6574000120162964 -0.1136000007390976 -0.9933000206947327 -0.02250000089406967
          -0.6218000054359436 -0.09049999713897705 -0.777899980545044 -0.447299987077713 -0.11150000244379044 -0.8873999714851379
          -0.14149999618530273 -0.13689999282360077 -0.980400025844574 -0.7161999940872192 -0.19040000438690186 0.6714000105857849
          -0.5570999979972839 -0.07999999821186066 0.8264999985694885 -0.6333000063896179 -0.13019999861717224 0.7627999782562256
          -0.09070000052452087 -0.3305000066757202 0.9394000172615051 -0.09210000187158585 -0.8328999876976013 0.5457000136375427
          -0.7152000069618225 -0.0868000015616417 0.6934000253677368 -0.7096999883651733 -0.08900000154972076 0.6988000273704529
          -0.7003999948501587 -0.08869999647140503 0.7081999778747559 -0.7297999858856201 -0.02070000022649765 0.6833000183105469
          -0.7251999974250793 -0.04820000007748604 0.6868000030517578 -0.7143999934196472 -0.042399998754262924 0.6984000205993652
          -0.7046999931335449 -0.06830000132322311 0.7062000036239624 -0.7565000057220459 -0.07280000299215317 0.6499000191688538
          -0.1446000039577484 -0.9821000099182129 -0.12049999833106995 -0.7638000249862671 -0.060100000351667404 0.6424999833106995
          -0.9032999873161316 -0.04149999842047691 0.4269999861717224 0.8008999824523926 -0.31679999828338623 -0.5080999732017517
          0.5080999732017517 -0.3709000051021576 -0.7773000001907349 0.07339999824762344 -0.6786999702453613 -0.7307000160217285
          -0.7437000274658203 -0.6211000084877014 -0.24709999561309814 -0.32429999113082886 -0.9452999830245972 0.03530000150203705
          -0.979200005531311 -0.026000000536441803 0.20100000500679016 0.847599983215332 0.0731000006198883 -0.525600016117096
          0.8428000211715698 -0.13860000669956207 -0.5200999975204468 0.6721000075340271 -0.22910000383853912 -0.7041000127792358
          -0.8389999866485596 -0.25279998779296875 0.48170000314712524 -0.9641000032424927 0.06729999929666519 0.25679999589920044
          -0.7505000233650208 -0.5950000286102295 0.28769999742507935 0.006599999964237213 -0.9998999834060669 -0.013700000010430813
          -0.991599977016449 -0.10170000046491623 0.07970000058412552 -0.9932000041007996 -0.10649999976158142 0.04690000042319298
          0.9872999787330627 -0.15199999511241913 0.04670000076293945 -0.8149999976158142 0.5351999998092651 0.22210000455379486
          -0.6176000237464905 -0.644599974155426 0.4505999982357025 0.351500004529953 -0.9035000205039978 -0.2451999932527542
          -0.9907000064849854 -0.12489999830722809 -0.053700000047683716 -0.9904000163078308 -0.11079999804496765 -0.08259999752044678
          0.5109000205993652 0.3869999945163727 0.7675999999046326 0.4499000012874603 -0.7623999714851379 -0.4650999903678894
          0.7735999822616577 0.23010000586509705 -0.5903000235557556 -0.9890999794006348 -0.08969999849796295 -0.11630000174045563
          0.9958000183105469 -0.08919999748468399 0.0210999995470047 0.623199999332428 -0.054999999701976776 -0.7800999879837036
          0.04839999973773956 -0.06970000267028809 -0.996399998664856 -0.11190000176429749 -0.3634999990463257 -0.9247999787330627
          0.5034999847412109 0.45249998569488525 -0.7360000014305115 0.33649998903274536 0.6686000227928162 -0.663100004196167
          0.6606000065803528 0.508400022983551 -0.5523999929428101 -0.9929999709129333 -0.05620000138878822 -0.10320000350475311
          0.7009000182151794 -0.0625 0.7105000019073486 0.28859999775886536 -0.10140000283718109 0.9520000219345093
          0.5774999856948853 -0.18219999969005585 0.7957000136375427 0.9233999848365784 -0.37880000472068787 -0.062300000339746475
          -0.9815000295639038 -0.08489999920129776 -0.1712999939918518 -0.9750999808311462 -0.05660000070929527 -0.2142000049352646
          0.9537000060081482 0.01979999989271164 0.3000999987125397 0.8442999720573425 -0.0031999999191612005 -0.5357999801635742
          0.6873999834060669 -0.17499999701976776 -0.7049000263214111 -0.9333000183105469 0.015200000256299973 -0.3587999939918518
          -0.9329000115394592 -0.02810000069439411 -0.3589000105857849 0.6753000020980835 -0.07100000232458115 0.7340999841690063
          0.4758000075817108 -0.11110000312328339 0.8725000023841858 0.621999979019165 0.049300000071525574 0.781499981880188
          0.3840000033378601 -0.3930000066757202 0.8355000019073486 0.026900000870227814 -0.49709999561309814 0.8672000169754028
          0.06840000301599503 0.08309999853372574 0.9941999912261963 0.15780000388622284 0.266400009393692 0.9508000016212463
          0.6758999824523926 -0.47290000319480896 0.5651999711990356 -0.8937000036239624 -0.020800000056624413 -0.448199987411499
          -0.8592000007629395 0.01209999993443489 -0.5113999843597412 0.1876000016927719 -0.13449999690055847 0.9729999899864197
          0.04190000146627426 0.006599999964237213 0.9991000294685364 -0.010200000368058681 0.1485999971628189 0.9887999892234802
          0.6728000044822693 -0.16760000586509705 0.7206000089645386 0.6146000027656555 -0.5519000291824341 0.5636000037193298
          -0.31369999051094055 -0.8949999809265137 0.31700000166893005 -0.49639999866485596 -0.6556000113487244 0.5690000057220459
          -0.5242000222206116 -0.5275999903678894 0.66839998960495 -0.6715999841690063 -0.026200000196695328 -0.7404000163078308
          0.14390000700950623 -0.43549999594688416 0.8885999917984009 -0.1882999986410141 -0.9724000096321106 0.13760000467300415
          0.13729999959468842 -0.9883999824523926 0.06449999660253525 -0.5310999751091003 -0.030700000002980232 -0.8467000126838684
          -0.5343999862670898 -0.006399999838322401 -0.8450999855995178 -0.5947999954223633 -0.08669999986886978 -0.7991999983787537
          -0.6148999929428101 -0.12780000269412994 -0.7781999707221985 -0.11389999836683273 -0.993399977684021 -0.009499999694526196
          -0.49380001425743103 -0.10589999705553055 -0.863099992275238 -0.3776000142097473 0.016499999910593033 -0.9258000254631042
          -0.4896000027656555 -0.01640000008046627 -0.8718000054359436 -0.11029999703168869 -0.9914000034332275 -0.07000000029802322
          -0.5853000283241272 -0.03709999844431877 -0.8100000023841858 -0.39980000257492065 0.04610000178217888 -0.9154000282287598
          -0.20149999856948853 0.03929999843239784 -0.9786999821662903 -0.05169999971985817 -0.05040000006556511 -0.9973999857902527
          -0.02879999950528145 -0.05119999870657921 -0.9983000159263611 -0.03999999910593033 -0.6489999890327454 -0.7597000002861023
          -0.385699987411499 -0.398499995470047 0.832099974155426 -0.5827999711036682 -0.1290999948978424 0.8022000193595886
          -0.5006999969482422 -0.09309999644756317 0.8605999946594238 -0.26409998536109924 -0.8855999708175659 0.38179999589920044
          -0.3919999897480011 -0.5389999747276306 0.7455000281333923 -0.5629000067710876 -0.09399999678134918 0.8212000131607056