<?xml version="1.0"?>
<VTKFile type="PolyData" version="0.1" byte_order="LittleEndian" header_type="UInt32" compressor="vtkZLibDataCompressor">
  <PolyData>
    <FieldData>
      <Array type="String" Name="MaterialNames" NumberOfTuples="1" format="ascii">
        109 97 116 101 114 105 97 108 95 48 0
      </Array>
      <Array type="String" Name="MaterialLibraries" NumberOfTuples="1" format="ascii">
        109 97 116 101 114 105 97 108 46 109 116 108 0
      </Array>
    </FieldData>
    <Piece NumberOfPoints="16611" NumberOfVerts="0" NumberOfLines="0" NumberOfStrips="0" NumberOfPolys="33689">
      <PointData Normals="Normals">
        <DataArray type="Float32" Name="Normals" NumberOfComponents="3" format="ascii" RangeMin="0.9999222751809873" RangeMax="1.0000816872949065">
          0.017400000244379044 -0.058800000697374344 -0.9980999827384949 0.1550000011920929 -0.05480000004172325 -0.9864000082015991
          0.09019999951124191 -0.04699999839067459 -0.9947999715805054 0.17470000684261322 -0.14149999618530273 -0.974399983882904
          0.2565000057220459 -0.04650000110268593 -0.965399980545044 0.050200000405311584 -0.1632000058889389 -0.9853000044822693
          0.017999999225139618 0.04399999976158142 0.9988999962806702 -0.125900000333786 -0.013100000098347664 0.9919999837875366
          -0.1168999969959259 -0.024900000542402267 0.9927999973297119 -0.12520000338554382 0.16030000150203705 0.9790999889373779
          -0.05310000106692314 0.10849999636411667 0.9926999807357788 -0.2020999938249588 0.11500000208616257 0.972599983215332
          -0.8278999924659729 0.03420000150799751 0.5598000288009644 -0.8378000259399414 -0.16599999368190765 0.5200999975204468
          -0.6541000008583069 -0.021199999377131462 0.7562000155448914 0.9573000073432922 0.09969999641180038 -0.2712000012397766
          0.967199981212616 0.08739999681711197 -0.2387000024318695 0.993399977684021 0.09309999644756317 0.06679999828338623
          0.583299994468689 0.056299999356269836 0.8102999925613403 0.5558000206947327 0.08910000324249268 0.8264999985694885
          0.5461999773979187 0.10019999742507935 0.83160001039505 -0.7092000246047974 -0.1193000003695488 -0.6948999762535095
          -0.7265999913215637 -0.22769999504089355 -0.6481999754905701 -0.6444000005722046 -0.1850000023841858 -0.7419999837875366
          0.4749000072479248 -0.8036999702453613 0.35850000381469727 0.5690000057220459 -0.6861000061035156 0.45329999923706055
          0.6482999920845032 -0.6834999918937683 0.33550000190734863 0.021900000050663948 0.9991000294685364 0.03550000116229057
          -0.029500000178813934 0.998199999332428 0.05290000140666962 0.22360000014305115 0.9740999937057495 -0.03359999880194664
          -0.8296999931335449 -0.07680000364780426 0.5529000163078308 -0.8483999967575073 -0.0908999964594841 0.5216000080108643
          -0.8985000252723694 -0.08070000261068344 0.43149998784065247 0.7555000185966492 0.14499999582767487 -0.6389999985694885
          0.8418999910354614 0.20970000326633453 -0.49720001220703125 0.7879999876022339 0.12039999663829803 -0.6036999821662903
          0.5479000210762024 -0.17829999327659607 0.817300021648407 0.33070001006126404 -0.060600001364946365 0.9417999982833862
          0.5490000247955322 -0.07880000025033951 0.832099974155426 -0.3978999853134155 -0.04639999940991402 -0.9162999987602234
          -0.29269999265670776 -0.13379999995231628 -0.9467999935150146 -0.4235000014305115 -0.23549999296665192 -0.8747000098228455
          -0.39070001244544983 0.4092000126838684 -0.8245999813079834 -0.5103999972343445 0.31290000677108765 -0.8009999990463257
          -0.17589999735355377 0.03359999880194664 -0.9837999939918518 -0.16130000352859497 0.061400000005960464 0.9850000143051147
          -0.22840000689029694 -0.07649999856948853 0.9704999923706055 -0.31520000100135803 0.03759999945759773 0.9483000040054321
          0.42660000920295715 -0.044199999421834946 -0.9032999873161316 0.5026000142097473 -0.040300000458955765 -0.8636000156402588
          0.3345000147819519 -0.09009999781847 -0.9380999803543091 -0.026399999856948853 0.15049999952316284 0.9883000254631042
          -0.3709000051021576 0.04230000078678131 0.9276999831199646 0.9433000087738037 0.12240000069141388 -0.3086000084877014
          0.8822000026702881 0.11999999731779099 -0.4553000032901764 0.973800003528595 0.11879999935626984 -0.19370000064373016
          -0.7544000148773193 -0.06520000100135803 -0.6531000137329102 -0.6769999861717224 -0.17309999465942383 -0.715399980545044
          -0.7258999943733215 -0.09520000219345093 -0.6811000108718872 0.045099999755620956 0.41589999198913574 -0.90829998254776
          -0.15410000085830688 0.5669999718666077 -0.8090999722480774 -0.08150000125169754 0.24979999661445618 -0.964900016784668
          0.27639999985694885 0.16449999809265137 0.9469000101089478 0.24779999256134033 0.10729999840259552 0.9628999829292297
          0.21770000457763672 0.11819999665021896 0.9688000082969666 -0.034699998795986176 -0.21610000729560852 -0.9757999777793884
          0.7551000118255615 0.13600000739097595 0.6413999795913696 0.7914999723434448 0.02850000001490116 0.6104999780654907
          0.6306999921798706 0.5034000277519226 0.5906000137329102 -0.8544999957084656 0.3917999863624573 -0.3409999907016754
          -0.9024999737739563 0.29840001463890076 -0.31060001254081726 -0.8525000214576721 0.4406000077724457 -0.28139999508857727
          -0.9399999976158142 -0.20090000331401825 0.2759000062942505 -0.8393999934196472 -0.17679999768733978 0.5138999819755554
          -0.8743000030517578 -0.22779999673366547 0.4287000000476837 0.17299999296665192 -0.27709999680519104 0.9451000094413757
          0.36660000681877136 0.03629999980330467 0.9297000169754028 0.45489999651908875 -0.612500011920929 0.6464999914169312
          0.9157000184059143 0.3407000005245209 -0.21299999952316284 0.9283999800682068 0.33390000462532043 -0.163100004196167
          0.9193000197410583 0.33719998598098755 -0.20319999754428864 -0.39250001311302185 -0.08709999918937683 0.9156000018119812
          -0.3955000042915344 -0.08209999650716782 0.9147999882698059 -0.5839999914169312 -0.18250000476837158 0.7910000085830688
          0.35589998960494995 0.01209999993443489 0.9344000220298767 0.250900000333786 -0.00279999990016222 0.9679999947547913
          0.3149000108242035 0.01600000075995922 0.9490000009536743 0.04129999876022339 -0.1307000070810318 -0.9905999898910522
          -0.049300000071525574 -0.14100000262260437 -0.9887999892234802 -0.19290000200271606 -0.17710000276565552 -0.9650999903678894
          -0.8537999987602234 -0.4138000011444092 -0.3156999945640564 -0.9003999829292297 -0.38499999046325684 -0.20229999721050262
          -0.8727999925613403 -0.42419999837875366 -0.24140000343322754 -0.16419999301433563 -0.9864000082015991 0.005499999970197678
          -0.09200000017881393 -0.9957000017166138 0.00559999980032444 -0.18690000474452972 -0.9699000120162964 -0.15610000491142273
          0.2572999894618988 0.07000000029802322 -0.9638000130653381 0.21389999985694885 -0.02889999933540821 -0.9764000177383423
          0.11630000174045563 0.024700000882148743 -0.992900013923645 -0.830299973487854 0.03310000151395798 -0.5562999844551086
          -0.7459999918937683 0.010999999940395355 -0.6657999753952026 -0.792900025844574 0.11270000040531158 -0.598800003528595
          -0.9503999948501587 -0.147599995136261 0.2736000120639801 -0.7882999777793884 -0.4542999863624573 0.414900004863739
          -0.9991000294685364 0.03689999878406525 0.021400000900030136 0.387800008058548 -0.34130001068115234 -0.8561999797821045
          0.499099999666214 -0.2596000134944916 -0.8267999887466431 0.37130001187324524 -0.3285999894142151 -0.868399977684021
          0.0908999964594841 -0.016899999231100082 0.9957000017166138 0.032999999821186066 -0.03660000115633011 0.9987999796867371
          0.1704999953508377 0.02250000089406967 0.9850999712944031 -0.4708000123500824 0.384799987077713 0.7939000129699707
          -0.37400001287460327 0.5174999833106995 0.769599974155426 -0.5593000054359436 0.35580000281333923 0.7487000226974487
          0.10499999672174454 0.022299999371170998 -0.9941999912261963 -0.08070000261068344 -0.08889999985694885 -0.9927999973297119
          0.050599999725818634 -0.17880000174045563 -0.9825999736785889 0.7788000106811523 0.1331000030040741 0.6129999756813049
          0.7184000015258789 0.12680000066757202 0.6840000152587891 0.7940999865531921 0.125 0.5947999954223633
          0.6230000257492065 -0.13979999721050262 -0.769599974155426 0.4934000074863434 -0.12039999663829803 -0.8614000082015991
          0.6152999997138977 -0.17470000684261322 -0.7687000036239624 0.7204999923706055 -0.2705000042915344 0.6384999752044678
          0.11050000041723251 -0.9674000144004822 0.22789999842643738 -0.8203999996185303 -0.07180000096559525 0.5672000050544739
          0.7843999862670898 -0.11259999871253967 0.6098999977111816 0.8554999828338623 -0.47099998593330383 0.2151000052690506
          0.1898999959230423 -0.9559999704360962 -0.22380000352859497 0.010300000198185444 -0.9782000184059143 0.20739999413490295
          0.16110000014305115 -0.9868999719619751 -0.00009999999747378752 -0.8348000049591064 -0.1851000040769577 -0.5184999704360962
          -0.7736999988555908 -0.22630000114440918 -0.59170001745224 -0.8111000061035156 -0.08460000157356262 -0.5788000226020813
          -0.9006999731063843 -0.421099990606308 -0.1062999963760376 -0.9305999875068665 -0.3407999873161316 -0.13339999318122864
          -0.8939999938011169 -0.34040001034736633 -0.2913999855518341 -0.859499990940094 -0.4693000018596649 0.2021999955177307
          -0.9129999876022339 -0.3328999876976013 0.23579999804496765 -0.894599974155426 -0.4153999984264374 0.1647000014781952
          -0.7236999869346619 0.1581999957561493 -0.6717000007629395 -0.730400025844574 0.00570000009611249 -0.6830000281333923
          -0.8292999863624573 0.14270000159740448 -0.5403000116348267 0.9401999711990356 0.1339000016450882 -0.3131999969482422
          0.880299985408783 0.30559998750686646 -0.3630000054836273 0.8719000220298767 -0.013100000098347664 -0.4894999861717224
          -0.6897000074386597 -0.2418999969959259 0.6825000047683716 -0.3862000107765198 -0.914900004863739 0.11760000139474869
          -0.8999000191688538 0.2295999974012375 0.3707999885082245 0.5260999798774719 -0.37290000915527344 -0.7642999887466431
          0.7087000012397766 -0.052400000393390656 -0.7035999894142151 0.5730999708175659 -0.014100000262260437 -0.8194000124931335
          -0.18690000474452972 0.41510000824928284 -0.8903999924659729 -0.13459999859333038 0.48919999599456787 -0.8616999983787537
          -0.42820000648498535 0.22089999914169312 -0.8762999773025513 -0.3959999978542328 -0.8443999886512756 -0.36070001125335693
          -0.5680999755859375 -0.3711000084877014 -0.7346000075340271 -0.808899998664856 -0.046799998730421066 -0.5860999822616577
          0.8015000224113464 -0.29120001196861267 -0.5223000049591064 -0.057100001722574234 -0.12280000001192093 -0.9908000230789185
          0.6521000266075134 -0.5182999968528748 -0.5532000064849854 -0.6953999996185303 0.02800000086426735 0.7179999947547913
          -0.5625 0.3790999948978424 0.7347999811172485 -0.2806999981403351 -0.2754000127315521 0.9193999767303467
          0.7360000014305115 0.20200000703334808 0.6462000012397766 0.9714999794960022 0.08820000290870667 0.2199999988079071
          0.8611999750137329 -0.2946000099182129 0.4140999913215637 -0.8888000249862671 -0.1696999967098236 0.42570000886917114
          -0.9182999730110168 -0.011300000362098217 0.39579999446868896 -0.9154000282287598 -0.12690000236034393 0.382099986076355
          -0.7265999913215637 0.3352000117301941 0.5997999906539917 -0.6858999729156494 0.6757000088691711 -0.27000001072883606
          -0.6180999875068665 0.7799999713897705 0.09780000150203705 -0.48980000615119934 -0.0982000008225441 -0.8662999868392944
          -0.6337000131607056 0.0617000013589859 -0.7710999846458435 -0.542900025844574 -0.2646999955177307 -0.796999990940094
          0.8648999929428101 -0.39079999923706055 -0.3149000108242035 0.7918000221252441 -0.41819998621940613 -0.44519999623298645
          0.8202999830245972 -0.37119999527931213 -0.4352000057697296 -0.39079999923706055 0.2768000066280365 0.8777999877929688
          -0.34950000047683716 0.41600000858306885 0.8395000100135803 -0.5001000165939331 0.516700029373169 0.6948999762535095
          0.8205999732017517 0.5346999764442444 -0.20170000195503235 0.8009999990463257 0.44699999690055847 -0.39820000529289246
          0.5900999903678894 0.7907000184059143 -0.16259999573230743 0.7756999731063843 0.04430000111460686 -0.6295999884605408
          0.7623999714851379 0.05460000038146973 -0.6448000073432922 0.7768999934196472 0.15399999916553497 -0.6104000210762024
          0.03579999879002571 -0.9240000247955322 0.3806999921798706 0.21289999783039093 -0.7811999917030334 -0.586899995803833
          -0.6970000267028809 -0.5806999802589417 -0.4207000136375427 0.8120999932289124 -0.250900000333786 0.5268999934196472
          0.7324000000953674 -0.14390000700950623 0.6654999852180481 0.8597999811172485 -0.21699999272823334 0.46219998598098755
          0.4521999955177307 0.28780001401901245 0.8442000150680542 0.7466999888420105 0.34549999237060547 0.5684000253677368
          0.7092000246047974 0.49459999799728394 0.5023999810218811 0.7515000104904175 0.0778999999165535 0.6550999879837036
          0.7120000123977661 0.27570000290870667 0.645799994468689 0.7860999703407288 0.21780000627040863 0.578499972820282
          -0.8695999979972839 -0.0005000000237487257 -0.49380001425743103 -0.6514000296592712 -0.2451999932527542 -0.7179999947547913
          -0.9592000246047974 0.26429998874664307 0.10010000318288803 -0.2517000138759613 0.8079000115394592 0.5328999757766724
          -0.9186000227928162 0.16979999840259552 0.35679998993873596 -0.44130000472068787 0.7124999761581421 0.5454999804496765
          -0.6759999990463257 -0.5467000007629395 -0.49410000443458557 -0.9562000036239624 -0.2784000039100647 -0.09059999883174896
          -0.8008999824523926 -0.2583000063896179 -0.5401999950408936 0.271699994802475 -0.47600001096725464 0.8363999724388123
          0.5726000070571899 0.6739000082015991 0.4668000042438507 0.7257999777793884 0.1378999948501587 0.6740000247955322
          -0.3662000000476837 0.7947999835014343 -0.4839000105857849 -0.6621999740600586 0.40070000290870667 -0.6331999897956848
          -0.6912999749183655 0.17260000109672546 -0.70169997215271 0.5095000267028809 0.6172999739646912 0.5995000004768372
          0.8780999779701233 0.42750000953674316 0.2150000035762787 0.8788999915122986 0.4185999929904938 0.22869999706745148
          -0.4226999878883362 -0.02319999970495701 -0.906000018119812 -0.07169999927282333 -0.7870000004768372 -0.6128000020980835
          0.32179999351501465 -0.349700003862381 -0.879800021648407 0.4611999988555908 -0.8065999746322632 0.36980000138282776
          0.5303999781608582 -0.7107999920845032 0.4620000123977661 0.6722999811172485 -0.6787999868392944 0.2953000068664551
          -0.36059999465942383 0.09009999781847 -0.9283999800682068 -0.14419999718666077 0.9890999794006348 -0.029100000858306885
          -0.3312000036239624 0.9301999807357788 0.15809999406337738 -0.5331000089645386 0.8260999917984009 -0.1826000064611435
          -0.6506999731063843 -0.11190000176429749 -0.7509999871253967 -0.6291000247001648 -0.12439999729394913 -0.767300009727478
          -0.607200026512146 -0.08030000329017639 -0.7904000282287598 0.8863000273704529 0.05460000038146973 -0.45980000495910645
          0.8720999956130981 -0.11840000003576279 -0.4747999906539917 0.9380000233650208 -0.053700000047683716 -0.3424000144004822
          0.4009999930858612 0.6367999911308289 0.6585999727249146 0.4068000018596649 0.5291000008583069 0.744700014591217
          0.5648999810218811 0.4659999907016754 0.6809999942779541 0.45179998874664307 -0.37880000472068787 -0.807699978351593
          0.4747999906539917 -0.29429998993873596 -0.8294000029563904 0.351500004529953 -0.3181999921798706 -0.8804000020027161
          0.9835000038146973 -0.05260000005364418 -0.17339999973773956 0.9991999864578247 -0.014000000432133675 -0.036400001496076584
          0.9840999841690063 -0.042100001126527786 -0.17229999601840973 -0.8561000227928162 0.22779999673366547 0.46399998664855957
          -0.7771999835968018 0.2092999964952469 0.5934000015258789 -0.9557999968528748 0.18799999356269836 0.22599999606609344
          -0.7588000297546387 -0.43369999527931213 -0.4860000014305115 -0.6610999703407288 -0.42149999737739563 -0.6207000017166138
          -0.5421000123023987 -0.2443999946117401 -0.8040000200271606 -0.9890000224113464 -0.07850000262260437 0.125
          -0.9912999868392944 -0.028300000354647636 0.12880000472068787 -0.9934999942779541 -0.10679999738931656 0.039400000125169754
          -0.7797999978065491 0.11749999970197678 0.6148999929428101 -0.6608999967575073 0.10869999974966049 0.7426000237464905
          -0.6258000135421753 0.06109999865293503 0.7775999903678894 0.14100000262260437 0.8131999969482422 -0.5647000074386597
          0.20960000157356262 0.8634999990463257 -0.45879998803138733 0.06159999966621399 0.6481999754905701 -0.7590000033378601
          0.041600000113248825 -0.8799999952316284 -0.4731000065803528 0.3467000126838684 -0.8116999864578247 -0.4699999988079071
          0.22589999437332153 -0.6820999979972839 -0.6955000162124634 0.6320000290870667 -0.11349999904632568 -0.7666000127792358
          0.6413999795913696 -0.5008999705314636 -0.5810999870300293 0.7671999931335449 -0.2092999964952469 -0.6062999963760376
          -0.4731000065803528 0.00800000037997961 0.8809000253677368 -0.45570001006126404 0.15440000593662262 0.8766999840736389
          -0.5152999758720398 0.10320000350475311 0.8507999777793884 0.703000009059906 -0.6937999725341797 0.15649999678134918
          0.9369000196456909 -0.22619999945163727 -0.26649999618530273 0.3458000123500824 -0.9343000054359436 -0.08699999749660492
          -0.17229999601840973 0.25279998779296875 0.9520999789237976 -0.19259999692440033 0.33500000834465027 0.9222999811172485
          0.018699999898672104 0.3490000069141388 0.9369000196456909 0.38600000739097595 0.5741000175476074 0.722100019454956
          0.45669999718666077 0.553600013256073 0.6963000297546387 0.4828999936580658 0.3828999996185303 0.7875000238418579
          0.08349999785423279 -0.9962000250816345 -0.026499999687075615 0.021400000900030136 -0.3244999945163727 0.9456999897956848
          0.541100025177002 -0.5097000002861023 0.6689000129699707 -0.8029999732971191 0.3336000144481659 0.49390000104904175
          -0.7615000009536743 0.45750001072883606 0.45910000801086426 -0.6694999933242798 0.23810000717639923 0.7035999894142151
          -0.5410000085830688 -0.6128000020980835 -0.5759000182151794 -0.5442000031471252 -0.45739999413490295 -0.7032999992370605
          -0.5918999910354614 -0.4717999994754791 -0.6535000205039978 -0.6108999848365784 0.24539999663829803 -0.7526999711990356
          -0.6126999855041504 0.08399999886751175 -0.7857999801635742 -0.15459999442100525 -0.23919999599456787 -0.9585999846458435
          -0.4077000021934509 -0.22859999537467957 -0.8840000033378601 -0.03229999914765358 0.1581999957561493 -0.9868999719619751
          -0.5909000039100647 0.23680000007152557 -0.7713000178337097 0.0632999986410141 0.8363999724388123 0.5444999933242798
          -0.3353999853134155 0.9057999849319458 -0.2590999901294708 0.6234999895095825 0.7487999796867371 -0.2249000072479248
          -0.8342000246047974 -0.11429999768733978 0.5394999980926514 -0.8971999883651733 -0.17560000717639923 0.4052000045776367
          -0.904699981212616 -0.07000000029802322 0.4203000068664551 -0.8206999897956848 -0.07580000162124634 0.5662999749183655
          -0.7961000204086304 -0.0949999988079071 0.5976999998092651 -0.8927000164985657 -0.07689999788999557 0.4440000057220459
          -0.9588000178337097 0.1597999930381775 0.23499999940395355 -0.5339999794960022 0.842199981212616 0.07440000027418137
          -0.7531999945640564 0.39590001106262207 0.5253000259399414 0.39899998903274536 0.8779000043869019 -0.2646999955177307
          0.04039999842643738 0.9991000294685364 0.00860000029206276 -0.056299999356269836 0.9972000122070312 0.04830000177025795
          0.5572999715805054 -0.006000000052154064 -0.830299973487854 0.6007000207901001 0.0284000001847744 -0.7990000247955322
          0.5546000003814697 0.018699999898672104 -0.8319000005722046 0.9302999973297119 0.07890000194311142 0.35830000042915344
          0.9567999839782715 0.10949999839067459 0.26930001378059387 0.914900004863739 0.1143999993801117 0.3871999979019165
          0.19979999959468842 -0.0142000000923872 -0.9797000288963318 0.0723000019788742 -0.025499999523162842 -0.9970999956130981
          -0.13770000636577606 -0.039500001817941666 -0.9897000193595886 -0.1551000028848648 0.37689998745918274 -0.9132000207901001
          -0.5343000292778015 0.38929998874664307 -0.7502999901771545 -0.4794999957084656 0.1550000011920929 -0.8636999726295471
          -0.06430000066757202 0.9901999831199646 -0.1242000013589859 -0.12219999730587006 0.9922999739646912 -0.017899999395012856
          0.00839999970048666 0.9993000030517578 0.03759999945759773 -0.14579999446868896 0.9861999750137329 -0.07819999754428864
          -0.061400000005960464 0.9778000116348267 -0.20020000636577606 -0.22310000658035278 0.9746000170707703 -0.019600000232458115
          0.25029999017715454 -0.12690000236034393 -0.9598000049591064 0.19449999928474426 -0.15360000729560852 -0.9688000082969666
          0.27730000019073486 -0.15309999883174896 -0.9484999775886536 0.5300999879837036 -0.08110000193119049 -0.8440999984741211
          0.5238000154495239 -0.09109999984502792 -0.847000002861023 0.46860000491142273 -0.0997999981045723 -0.8777999877929688
          -0.8119000196456909 -0.029200000688433647 0.5830000042915344 -0.823199987411499 0.12370000034570694 0.554099977016449
          -0.8537999987602234 -0.09350000321865082 0.5120999813079834 -0.8194000124931335 0.02930000051856041 -0.5724999904632568
          -0.5662999749183655 -0.06499999761581421 -0.8216000199317932 -0.6229000091552734 0.22619999945163727 -0.7488999962806702
          -0.8393999934196472 0.1459999978542328 0.5235000252723694 -0.6883999705314636 0.5960999727249146 0.4133000075817108
          -0.22139999270439148 0.7441999912261963 0.6302000284194946 0.9470000267028809 0.2854999899864197 0.1469999998807907
          0.9659000039100647 0.16339999437332153 0.20059999823570251 0.8543999791145325 0.499099999666214 0.1445000022649765
          0.3151000142097473 0.9337999820709229 0.1696999967098236 -0.7317000031471252 0.6464999914169312 0.2159000039100647
          0.6323999762535095 -0.7742000222206116 0.023900000378489494 0.8177000284194946 -0.5562999844551086 -0.14810000360012054
          0.49559998512268066 -0.8087000250816345 -0.31690001487731934 0.8626999855041504 -0.41110000014305115 -0.2944999933242798
          0.8361999988555908 -0.5473999977111816 -0.03440000116825104 -0.21529999375343323 -0.7803999781608582 0.5870000123977661
          -0.03909999877214432 -0.7554000020027161 0.6541000008583069 -0.3172999918460846 -0.8664000034332275 0.385699987411499
          0.9199000000953674 -0.021400000900030136 0.39169999957084656 0.8422999978065491 -0.263700008392334 0.4700999855995178
          0.8841999769210815 -0.31040000915527344 0.3490999937057495 -0.9078999757766724 0.28940001130104065 -0.30329999327659607
          -0.8636000156402588 0.38769999146461487 -0.322299987077713 -0.9850999712944031 0.11299999803304672 -0.12960000336170197
          -0.4553999900817871 0.3637000024318695 -0.8126000165939331 -0.48660001158714294 0.2223999947309494 -0.8449000120162964
          -0.2648000121116638 0.2012999951839447 -0.9430999755859375 0.9470999836921692 0.0754999965429306 -0.31189998984336853
          0.9653000235557556 0.17389999330043793 -0.1949000060558319 0.8680999875068665 0.3743000030517578 -0.32600000500679016
          0.9103999733924866 -0.2680000066757202 -0.3151000142097473 0.890999972820282 0.21170000731945038 -0.40149998664855957
          0.8920000195503235 0.30970001220703125 -0.32910001277923584 -0.00009999999747378752 -0.8572999835014343 -0.5148000121116638
          -0.12939999997615814 -0.4632999897003174 -0.8766999840736389 -0.22470000386238098 -0.41019999980926514 -0.883899986743927
          -0.6309999823570251 0.10170000046491623 0.76910001039505 -0.4909000098705292 0.3873000144958496 0.7803999781608582
          -0.0828000009059906 0.07699999958276749 0.9936000108718872 -0.0272000003606081 -0.47429999709129333 -0.8798999786376953
          0.09279999881982803 -0.43389999866485596 -0.8962000012397766 0.08540000021457672 -0.6385999917984009 -0.7648000121116638
          -0.7670999765396118 0.17339999973773956 0.6176999807357788 -0.7057999968528748 0.21449999511241913 0.6751000285148621
          -0.6624000072479248 0.2134999930858612 0.7181000113487244 0.29600000381469727 0.014600000344216824 0.9550999999046326
          0.08889999985694885 0.02290000021457672 0.9958000183105469 0.29269999265670776 0.021700000390410423 0.9559999704360962
          -0.5907999873161316 0.01860000006854534 -0.8065999746322632 -0.589900016784668 -0.014700000174343586 -0.8073999881744385
          -0.6247000098228455 -0.10369999706745148 -0.7738999724388123 -0.9922999739646912 0.06750000268220901 0.1039000004529953
          -0.9987000226974487 0.041999999433755875 -0.029100000858306885 -0.9873999953269958 0.1468999981880188 -0.05920000001788139
          0.8334000110626221 -0.474700003862381 -0.28290000557899475 0.5178999900817871 -0.7032999992370605 -0.4869000017642975
          0.4853000044822693 -0.6083999872207642 -0.6279000043869019 -0.9783999919891357 -0.16359999775886536 0.12610000371932983
          -0.9850000143051147 -0.15880000591278076 -0.06769999861717224 -0.9728000164031982 -0.2249000072479248 0.05490000173449516
          -0.5673999786376953 0.44359999895095825 0.6937000155448914 -0.8582000136375427 0.3677000105381012 0.3582000136375427
          -0.6729999780654907 0.671500027179718 0.3098999857902527 0.9966999888420105 0.057500001043081284 0.05779999867081642
          0.9988999962806702 -0.021400000900030136 0.041999999433755875 0.9994000196456909 -0.03460000082850456 0.0032999999821186066
          0.9577000141143799 0.17910000681877136 -0.22540000081062317 0.8687000274658203 0.13740000128746033 -0.4758000075817108
          0.9606999754905701 0.10980000346899033 -0.2551000118255615 0.33660000562667847 0.10010000318288803 0.9362999796867371
          0.2969000041484833 0.1695999950170517 0.9397000074386597 0.19249999523162842 0.1177000030875206 0.9742000102996826
          0.48669999837875366 -0.8736000061035156 -0.004399999976158142 0.7488999962806702 -0.6581000089645386 -0.0771000012755394
          0.646399974822998 -0.7293000221252441 -0.22439999878406525 0.49810001254081726 -0.44690001010894775 -0.7430999875068665
          0.05389999970793724 -0.5437999963760376 -0.8374999761581421 0.4781000018119812 -0.619700014591217 -0.6223999857902527
          -0.40639999508857727 -0.17499999701976776 -0.8967999815940857 -0.7143999934196472 0.048900000751018524 -0.6980000138282776
          -0.5088000297546387 -0.07670000195503235 -0.8575000166893005 0.8363000154495239 0.07850000262260437 -0.5425999760627747
          0.8054999709129333 0.13750000298023224 -0.5763999819755554 0.8345999717712402 -0.02889999933540821 -0.5501000285148621
          0.6335999965667725 0.07079999893903732 0.7703999876976013 0.5490000247955322 0.03610000014305115 0.8349999785423279
          0.6225000023841858 0.04639999940991402 0.7813000082969666 -0.21330000460147858 -0.06840000301599503 0.9746000170707703
          -0.07370000332593918 -0.028699999675154686 0.9969000220298767 -0.2818000018596649 -0.10080000013113022 0.954200029373169
          -0.474700003862381 0.08100000023841858 -0.8763999938964844 -0.39010000228881836 0.053599998354911804 -0.9192000031471252
          -0.5095000267028809 -0.04100000113248825 -0.859499990940094 0.4950999915599823 -0.07699999958276749 0.8654000163078308
          0.47920000553131104 -0.249099999666214 0.8416000008583069 0.37959998846054077 -0.21629999577999115 0.8995000123977661
          0.9174000024795532 0.0820000022649765 0.3894999921321869 0.911899983882904 0.11789999902248383 0.39309999346733093
          0.9545999765396118 0.07840000092983246 0.287200003862381 0.9740999937057495 0.14630000293254852 0.17260000109672546
          0.9545000195503235 0.2037000060081482 0.21799999475479126 0.925599992275238 0.11659999936819077 0.36010000109672546
          -0.28790000081062317 -0.07419999688863754 -0.954800009727478 -0.38350000977516174 -0.05429999902844429 -0.9218999743461609
          -0.5192999839782715 -0.013199999928474426 -0.8544999957084656 -0.09870000183582306 -0.9800000190734863 -0.1728000044822693
          -0.15369999408721924 -0.9807000160217285 -0.12080000340938568 -0.12919999659061432 -0.9915000200271606 -0.01810000091791153
          -0.8151000142097473 -0.32670000195503235 -0.47850000858306885 -0.6459000110626221 -0.18029999732971191 -0.7419000267982483
          -0.7983999848365784 -0.26339998841285706 -0.5414000153541565 -0.9668999910354614 -0.04820000007748604 0.25049999356269836
          -0.963100016117096 -0.16290000081062317 0.2142000049352646 -0.9182999730110168 -0.1177000030875206 0.3781000077724457
          0.847000002861023 -0.18790000677108765 -0.49720001220703125 -0.4553000032901764 0.08179999887943268 -0.8866000175476074
          0.7947999835014343 -0.46779999136924744 -0.38670000433921814 0.4180999994277954 -0.20010000467300415 0.8860999941825867