<?xml version="1.0"?>
<VTKFile type="PolyData" version="0.1" byte_order="LittleEndian" header_type="UInt32" compressor="vtkZLibDataCompressor">
  <PolyData>
    <FieldData>
      <Array type="String" Name="MaterialNames" NumberOfTuples="1" format="ascii">
        109 97 116 101 114 105 97 108 95 48 0
      </Array>
      <Array type="String" Name="MaterialLibraries" NumberOfTuples="1" format="ascii">
        109 97 116 101 114 105 97 108 46 109 116 108 0
      </Array>
    </FieldData>
    <Piece NumberOfPoints="13295" NumberOfVerts="0" NumberOfLines="0" NumberOfStrips="0" NumberOfPolys="26958">
      <PointData Normals="Normals">
        <DataArray type="Float32" Name="Normals" NumberOfComponents="3" format="ascii" RangeMin="0.9998797127320604" RangeMax="1.000064068084731">
          0.3441999852657318 0.8726999759674072 0.34610000252723694 0.482699990272522 0.7757999897003174 0.40639999508857727
          0.002300000051036477 0.9621999859809875 0.27239999175071716 -0.39910000562667847 0.8948000073432922 0.20000000298023224
          -0.23340000212192535 0.8946999907493591 0.3806999921798706 0.35989999771118164 0.9319000244140625 0.04349999874830246
          0.40619999170303345 0.9064000248908997 0.11599999666213989 0.3865000009536743 0.9193000197410583 -0.07370000332593918
          0.03020000085234642 0.9919000267982483 -0.12349999696016312 -0.33309999108314514 0.9243000149726868 -0.18619999289512634
          -0.6176999807357788 0.7849000096321106 -0.04740000143647194 0.367900013923645 0.847100019454956 -0.3833000063896179
          0.3628999888896942 0.8314999938011169 -0.4205999970436096 0.36579999327659607 0.7750999927520752 -0.5151000022888184
          0.054499998688697815 0.8379999995231628 -0.5428000092506409 -0.3264999985694885 0.7739999890327454 -0.5425000190734863
          0.2084999978542328 0.48510000109672546 -0.8492000102996826 0.019500000402331352 0.5468000173568726 -0.8370000123977661
          0.42649999260902405 0.8528000116348267 0.3012000024318695 0.24330000579357147 0.9611999988555908 0.1298000067472458
          0.1534000039100647 0.8888999819755554 0.4316999912261963 0.1680999994277954 0.9769999980926514 0.13089999556541443
          0.5712000131607056 0.7996000051498413 0.1851000040769577 0.3292999863624573 0.916100025177002 0.22859999537467957
          0.13349999487400055 0.973800003528595 0.1842000037431717 0.2685000002384186 0.9585999846458435 -0.0940999984741211
          0.1899999976158142 0.9595000147819519 0.20810000598430634 0.5727999806404114 0.8062000274658203 0.14800000190734863
          0.060600001364946365 0.9847000241279602 0.16329999268054962 0.27959999442100525 0.947700023651123 0.15389999747276306
          0.4814999997615814 0.8223999738693237 0.3028999865055084 0.32350000739097595 0.807200014591217 0.49380001425743103
          0.1266999989748001 0.8281999826431274 0.5458999872207642 0.1543000042438507 0.8447999954223633 0.5123000144958496
          -0.11089999973773956 0.8666999936103821 0.486299991607666 -0.5052000284194946 0.8307999968528748 0.23340000212192535
          -0.6499000191688538 0.722599983215332 0.23549999296665192 0.6973999738693237 0.715399980545044 -0.04129999876022339
          0.03240000084042549 0.8683000206947327 0.49480000138282776 0.31610000133514404 0.8248000144958496 0.46869999170303345
          -0.7888000011444092 0.607699990272522 -0.0917000025510788 0.8479999899864197 0.5263000130653381 -0.06210000067949295
          0.7275000214576721 0.6844000220298767 0.047600001096725464 0.5224999785423279 0.8482000231742859 0.08640000224113464
          0.2842000126838684 0.8812999725341797 0.3774000108242035 0.830299973487854 0.5081999897956848 -0.22859999537467957
          0.6123999953269958 0.7699999809265137 -0.17910000681877136 -0.6312000155448914 0.6068000197410583 -0.4830000102519989
          0.5113000273704529 0.6474999785423279 -0.5649999976158142 0.19699999690055847 0.6115999817848206 -0.7662000060081482
          -0.31290000677108765 0.47440001368522644 -0.822700023651123 0.6654999852180481 0.44600000977516174 -0.5985000133514404
          0.33809998631477356 0.5206999778747559 -0.7839000225067139 0.10849999636411667 0.4672999978065491 -0.8773999810218811
          -0.05090000107884407 0.3409000039100647 -0.9387000203132629 0.06469999998807907 0.21979999542236328 -0.9733999967575073
          0.01810000091791153 0.2718999981880188 -0.9621999859809875 0.31290000677108765 0.6836000084877014 0.6593999862670898
          0.24420000612735748 0.7775999903678894 0.5794000029563904 0.2791000008583069 0.6557999849319458 0.7013999819755554
          0.10509999841451645 0.7487000226974487 0.6545000076293945 -0.04769999906420708 0.7926999926567078 0.607699990272522
          0.5882999897003174 0.6721000075340271 0.4496000111103058 0.42660000920295715 0.7742999792098999 0.4672999978065491
          0.2312999963760376 0.9690999984741211 0.08550000190734863 0.8288999795913696 0.5098000168800354 0.23019999265670776
          0.028999999165534973 0.911899983882904 0.4092999994754791 -0.13920000195503235 0.7580000162124634 0.6371999979019165
          -0.3580000102519989 0.7760000228881836 0.5192000269889832 0.6721000075340271 0.7157999873161316 0.1891999989748001
          0.8241000175476074 0.5310999751091003 -0.19679999351501465 0.6503999829292297 0.7580999732017517 -0.04580000042915344
          -0.8203999996185303 0.5583000183105469 0.12330000102519989 0.7253000140190125 0.6110000014305115 -0.3172000050544739
          -0.8888999819755554 0.45730000734329224 -0.02590000070631504 0.776199996471405 0.545199990272522 -0.3167000114917755
          -0.8866999745368958 0.4560000002384186 -0.07559999823570251 0.8578000068664551 0.4602000117301941 -0.22859999537467957
          -0.8267999887466431 0.44130000472068787 -0.34880000352859497 0.879800021648407 0.42329999804496765 -0.21619999408721924
          -0.5730000138282776 0.44530001282691956 -0.6880000233650208 0.7160000205039978 0.4636000096797943 -0.5218999981880188
          -0.19750000536441803 0.16329999268054962 -0.9666000008583069 0.05730000138282776 -0.00019999999494757503 -0.9983999729156494
          0.2273000031709671 0.025699999183416367 -0.9735000133514404 0.034699998795986176 0.421099990606308 -0.9063000082969666
          -0.2759000062942505 0.3790999948978424 -0.8833000063896179 0.30559998750686646 0.5302000045776367 -0.7908999919891357
          -0.10540000349283218 0.44369998574256897 -0.8899000287055969 -0.3167000114917755 0.2994000017642975 -0.9000999927520752
          0.5827000141143799 0.5949000120162964 0.553600013256073 0.48559999465942383 0.2513999938964844 0.8371999859809875
          0.933899998664856 0.13220000267028809 0.33219999074935913 0.16580000519752502 0.7961000204086304 0.5820000171661377
          -0.2240999937057495 0.8422999978065491 0.490200012922287 0.05460000038146973 0.5573999881744385 0.8284000158309937
          -0.5766000151634216 0.7569000124931335 0.3073999881744385 0.8022000193595886 0.5939000248908997 0.06069999933242798
          0.329800009727478 0.9344000220298767 0.13420000672340393 -0.16369999945163727 0.9815000295639038 0.09920000284910202
          -0.5242999792098999 0.8511999845504761 -0.022299999371170998 0.8355000019073486 0.44290000200271606 -0.32519999146461487
          0.9764000177383423 -0.004399999976158142 -0.21580000221729279 0.38019999861717224 0.8223999738693237 -0.42309999465942383
          -0.13349999487400055 0.9232000112533569 -0.3601999878883362 -0.5289000272750854 0.7782999873161316 -0.33820000290870667
          0.7615000009536743 0.19609999656677246 -0.6176999807357788 0.38760000467300415 0.49059998989105225 -0.7803999781608582
          -0.1062999963760376 0.6236000061035156 -0.7745000123977661 -0.47540000081062317 0.5922999978065491 -0.6504999995231628
          0.17980000376701355 0.6765000224113464 0.7141000032424927 0.4521999955177307 0.6564000248908997 0.6039000153541565
          0.39809998869895935 0.5685999989509583 0.7199000120162964 0.2881999909877777 0.6204000115394592 0.7293999791145325
          -0.044599998742341995 0.7333999872207642 0.6783000230789185 0.6014999747276306 0.49300000071525574 0.628600001335144
          0.7229999899864197 0.4334000051021576 0.5379999876022339 -0.37229999899864197 0.6753000020980835 0.6366000175476074
          0.8562999963760376 0.3499000072479248 0.3797999918460846 -0.6879000067710876 0.5985999703407288 0.41040000319480896
          0.9663000106811523 0.21480000019073486 0.14169999957084656 0.9528999924659729 0.30160000920295715 -0.03139999881386757
          0.9228000044822693 0.26739999651908875 -0.27709999680519104 -0.9215999841690063 0.37540000677108765 -0.09870000183582306
          0.8977000117301941 0.2987000048160553 -0.3239000141620636 0.8587999939918518 0.43459999561309814 -0.27129998803138733
          0.9199000000953674 0.21469999849796295 -0.3280999958515167 -0.8151000142097473 0.46939998865127563 -0.3393999934196472
          -0.9445000290870667 0.31290000677108765 -0.09960000216960907 0.8639000058174133 0.3946000039577484 -0.31279999017715454
          0.7896999716758728 0.2475000023841858 -0.5612999796867371 -0.2856999933719635 0.14429999887943268 -0.9473999738693237
          -0.07999999821186066 -0.026100000366568565 -0.996399998664856 0.2685000002384186 -0.1704999953508377 -0.9480999708175659
          0.6025000214576721 -0.1378999948501587 -0.7860999703407288 -0.48030000925064087 0.552299976348877 -0.6814000010490417
          -0.3716999888420105 0.2492000013589859 -0.8942999839782715 0.39959999918937683 0.0949999988079071 -0.9117000102996826
          -0.43059998750686646 0.7540000081062317 -0.4959000051021576 0.5667999982833862 0.23029999434947968 -0.7910000085830688
          0.3797999918460846 0.4697999954223633 -0.7968999743461609 0.012500000186264515 0.5095999836921692 -0.8603000044822693
          -0.20909999310970306 0.295199990272522 -0.932200014591217 0.3578000068664551 0.5221999883651733 0.7741000056266785
          0.5379999876022339 0.09480000287294388 0.8375999927520752 -0.11110000312328339 0.815500020980835 0.5679000020027161
          0.16099999845027924 0.17730000615119934 -0.9708999991416931 0.6348000168800354 -0.32190001010894775 0.7024000287055969
          0.8377000093460083 -0.22059999406337738 0.49959999322891235 -0.7390999794006348 0.6690999865531921 0.07729999721050262
          0.9546999931335449 -0.2939000129699707 0.04520000144839287 -0.8144000172615051 0.580299973487854 0.0012000000569969416
          -0.7753000259399414 0.5716999769210815 -0.26829999685287476 0.8946999907493591 -0.25609999895095825 -0.36579999327659607
          0.6769000291824341 -0.0706000030040741 -0.732699990272522 0.311599999666214 0.1703999936580658 -0.9348000288009644
          -0.13189999759197235 0.3864000141620636 -0.9128000140190125 -0.43959999084472656 0.30660000443458557 -0.8442000150680542
          0.24220000207424164 0.6021000146865845 0.7608000040054321 0.0044999998062849045 0.6694999933242798 0.7427999973297119
          -0.1356000006198883 0.6654000282287598 0.7340999841690063 0.5060999989509583 0.4724999964237213 0.7214000225067139
          0.305400013923645 0.6061000227928162 0.7343999743461609 -0.22419999539852142 0.6898999810218811 0.6883000135421753
          -0.27489998936653137 0.6341000199317932 0.7226999998092651 -0.3253999948501587 0.6380000114440918 0.6978999972343445
          -0.43790000677108765 0.6111999750137329 0.6592000126838684 -0.7024999856948853 0.5023000240325928 0.5040000081062317
          -0.899399995803833 0.3991999924182892 0.17800000309944153 -0.9325000047683716 0.337799996137619 -0.12770000100135803
          0.9919000267982483 0.07119999825954437 -0.1054999977350235 0.9625999927520752 0.12540000677108765 -0.2402999997138977
          -0.9484999775886536 0.26460000872612 -0.17399999499320984 0.9589999914169312 0.05689999833703041 -0.2773999869823456
          0.8985000252723694 -0.02979999966919422 -0.43790000677108765 -0.9203000068664551 0.3183000087738037 -0.227400004863739
          -0.7827000021934509 0.4480000138282776 -0.4318999946117401 0.8080000281333923 0 -0.5891000032424927
          0.9211999773979187 0.2892000079154968 -0.26019999384880066 0.9678999781608582 -0.1882999986410141 -0.1662999987602234
          0.2093999981880188 0.9210000038146973 -0.3285999894142151 0.5471000075340271 -0.039900001138448715 -0.8360999822616577
          -0.38449999690055847 0.21719999611377716 -0.8971999883651733 0.9172999858856201 -0.2937000095844269 0.2689000070095062
          -0.8776000142097473 0.414000004529953 -0.241799995303154 -0.24799999594688416 0.08749999850988388 -0.9648000001907349
          0.7035999894142151 -0.5169000029563904 0.48750001192092896 -0.9416000247001648 0.3366999924182892 0.007000000216066837
          0.75 -0.5587999820709229 0.3537999987602234 -0.9496999979019165 0.3046000003814697 -0.07240000367164612
          0.8313000202178955 -0.5403000116348267 -0.13009999692440033 -0.7886000275611877 0.3463999927043915 -0.5080000162124634
          0.7709000110626221 -0.39480000734329224 -0.4999000132083893 0.4912000000476837 -0.31839999556541443 -0.8108000159263611
          -0.006200000178068876 0.0568000003695488 -0.9983999729156494 0.34929999709129333 0.5679000020027161 0.7452999949455261
          0.26759999990463257 0.5799000263214111 0.7695000171661377 0.13050000369548798 0.49950000643730164 0.8564000129699707
          0.0015999999595806003 0.555400013923645 0.8314999938011169 0.5511999726295471 0.40389999747276306 0.7300999760627747
          -0.28850001096725464 0.5248000025749207 0.8008000254631042 -0.41260001063346863 0.5810999870300293 0.7013999819755554
          0.6740000247955322 0.3709999918937683 0.6388000249862671 0.777400016784668 0.33309999108314514 0.5335999727249146
          0.8988999724388123 0.24459999799728394 0.3634999990463257 0.9821000099182129 0.1298999935388565 0.13590000569820404
          -0.9483000040054321 0.15309999883174896 -0.2777999937534332 0.96670001745224 -0.014299999922513962 -0.2554999887943268
          0.9563999772071838 -0.025800000876188278 -0.29100000858306885 -0.9886000156402588 0.09920000284910202 -0.1128000020980835
          0.9194999933242798 -0.09860000014305115 -0.3806000053882599 -0.9667999744415283 0.08709999918937683 -0.2401999980211258
          0.8654000163078308 -0.14409999549388885 -0.4799000024795532 -0.3395000100135803 0.12060000002384186 -0.9327999949455261
          0.035599999129772186 -0.26969999074935913 -0.9623000025749207 0.6662999987602234 -0.48489999771118164 -0.5663999915122986
          0.7389000058174133 -0.15160000324249268 -0.656499981880188 0.8529000282287598 -0.5202000141143799 -0.042500000447034836
          -0.958299994468689 -0.00139999995008111 -0.2854999899864197 0.5073000192642212 -0.20010000467300415 -0.8381999731063843
          -0.3100999891757965 0.09570000320672989 -0.945900022983551 -0.39800000190734863 0.17659999430179596 -0.9002000093460083
          0.01640000008046627 -0.17980000376701355 -0.9836000204086304 -0.2655999958515167 -0.03290000185370445 -0.9635000228881836
          -0.9993000030517578 0.011099999770522118 0.0364999994635582 0.5659000277519226 -0.6879000067710876 0.4544000029563904
          0.6111999750137329 -0.7731999754905701 0.1688999980688095 -0.9587000012397766 0.0689999982714653 -0.2757999897003174
          0.6215000152587891 -0.7646999955177307 -0.16990000009536743 0.5824999809265137 -0.6523000001907349 -0.48500001430511475
          -0.6947000026702881 0.053700000047683716 -0.7172999978065491 0.07750000059604645 -0.35659998655319214 -0.9309999942779541
          -0.3483000099658966 -0.16210000216960907 -0.9232000112533569 0.37549999356269836 0.42809998989105225 0.8220000267028809
          0.19769999384880066 0.39590001106262207 0.8967000246047974 0.005200000014156103 0.4244000017642975 0.9053999781608582
          -0.1460999995470047 0.4713999927043915 0.869700014591217 -0.4422999918460846 0.4772000014781952 0.7592999935150146
          0.7005000114440918 0.3813999891281128 0.6032000184059143 -0.524399995803833 0.48739999532699585 0.698199987411499
          -0.592199981212616 0.4607999920845032 0.6610000133514404 0.8299999833106995 0.3637999892234802 0.4228000044822693
          -0.7605999708175659 0.35899999737739563 0.5407999753952026 0.9434000253677368 0.23639999330043793 0.23260000348091125
          -0.8536999821662903 0.31200000643730164 0.41690000891685486 -0.9312000274658203 0.24250000715255737 0.2721000015735626
          0.988099992275238 0.15360000729560852 0.01080000028014183 -0.5795999765396118 -0.6251000165939331 -0.5228000283241272
          -0.16189999878406525 -0.5760999917984009 -0.8011999726295471 -0.31290000677108765 -0.7731999754905701 -0.5514000058174133
          0.1543000042438507 -0.8341000080108643 -0.5295000076293945 0.5709999799728394 -0.7906000018119812 -0.22110000252723694
          -0.980400025844574 0.19670000672340393 -0.006099999882280827 0.9817000031471252 0.08820000290870667 -0.16899999976158142
          -0.8287000060081482 -0.5296000242233276 -0.18070000410079956 -0.5203999876976013 -0.8536999821662903 -0.01889999955892563
          -0.02160000056028366 -0.9997000098228455 -0.008899999782443047 0.6467999815940857 -0.7236999869346619 0.24079999327659607
          -0.7865999937057495 -0.5437999963760376 0.2922999858856201 -0.3637000024318695 -0.7706000208854675 0.5234000086784363
          0.12290000170469284 -0.7973999977111816 0.5907999873161316 0.642799973487854 -0.43849998712539673 0.628000020980835
          -0.9485999941825867 0.07840000092983246 -0.30660000443458557 -0.6973000168800354 -0.31679999828338623 0.6430000066757202
          -0.40049999952316284 -0.4765999913215637 0.7825999855995178 -0.03889999911189079 -0.5058000087738037 0.8618000149726868
          0.3619000017642975 -0.4668999910354614 0.8069000244140625 -0.9501000046730042 -0.013399999588727951 -0.3116999864578247
          -0.9937000274658203 -0.06849999725818634 -0.08799999952316284 -0.9491000175476074 -0.25690001249313354 -0.18230000138282776
          0.013299999758601189 -0.5554999709129333 -0.8313999772071838 -0.4645000100135803 -0.12460000067949295 -0.8766999840736389
          0.017899999395012856 -0.7718999981880188 -0.6355000138282776 -0.9620000123977661 -0.18870000541210175 -0.19740000367164612
          -0.8439000248908997 -0.46790000796318054 -0.26260000467300415 -0.5570999979972839 0.05119999870657921 -0.8288999795913696
          0.47870001196861267 -0.7821999788284302 -0.3986999988555908 0.08070000261068344 -0.9217000007629395 -0.37940001487731934
          0.7605000138282776 -0.10980000346899033 -0.6399999856948853 0.49540001153945923 -0.8682000041007996 0.027300000190734863
          -0.027300000190734863 -0.8769000172615051 -0.4797999858856201 -0.5024999976158142 -0.7784000039100647 -0.37619999051094055
          -0.7390999794006348 -0.5239999890327454 -0.42309999465942383 0.5509999990463257 -0.15489999949932098 -0.8199999928474426
          0.3345000147819519 -0.1128000020980835 -0.9355999827384949 -0.25440001487731934 0.06279999762773514 -0.9649999737739563
          -0.15800000727176666 -0.9659000039100647 -0.20489999651908875 0.12439999729394913 -0.20010000467300415 -0.9718000292778015
          -0.1673000007867813 0.03350000083446503 -0.9853000044822693 0.3093000054359436 -0.8047999739646912 0.506600022315979
          -0.3456999957561493 -0.8611999750137329 0.3725000023841858 -0.8798999786376953 -0.4675999879837036 0.08389999717473984
          0.21330000460147858 -0.8598999977111816 0.46380001306533813 -0.3125 -0.8948000073432922 0.3188000023365021
          -0.8672999739646912 -0.4722000062465668 0.15729999542236328 0.25529998540878296 -0.9664999842643738 -0.02459999918937683
          -0.8163999915122986 -0.4779999852180481 -0.3240000009536743 0.10670000314712524 -0.76419997215271 -0.6360999941825867
          -0.29330000281333923 -0.8963000178337097 -0.3325999975204468 -0.4731999933719635 -0.44769999384880066 -0.7587000131607056
          0.5339999794960022 0.3765000104904175 0.7570000290870667 0.3917999863624573 0.3328000009059906 0.857699990272522
          0.2012999951839447 0.28619998693466187 0.9368000030517578 0.05429999902844429 0.2694999873638153 0.9614999890327454
          -0.062300000339746475 0.3422999978065491 0.9375 -0.2563000023365021 0.390500009059906 0.8841999769210815
          -0.5187000036239624 0.37450000643730164 0.7684999704360962 0.6060000061988831 0.46639999747276306 0.6444000005722046
          -0.666700005531311 0.34279999136924744 0.6617000102996826 0.7770000100135803 0.4250999987125397 0.4641999900341034
          -0.7239999771118164 -0.5913000106811523 -0.35510000586509705 -0.34599998593330383 -0.7421000003814697 -0.5740000009536743
          -0.21230000257492065 -0.6913999915122986 -0.690500020980835 -0.11789999902248383 -0.7085000276565552 -0.6958000063896179
          0.09520000219345093 -0.7369999885559082 -0.6690999865531921 0.11150000244379044 -0.753000020980835 -0.6484000086784363
          0.305400013923645 -0.9143000245094299 -0.2660999894142151 0.6399999856948853 -0.7682999968528748 -0.009800000116229057
          0.9645000100135803 0.19460000097751617 -0.17839999496936798 -0.6624000072479248 -0.588100016117096 -0.46389999985694885
          0.6313999891281128 -0.7361999750137329 0.2434999942779541 -0.9871000051498413 0.14990000426769257 -0.05609999969601631
          -0.8914999961853027 -0.4528999924659729 0.005799999926239252 0.728600025177002 -0.2854999899864197 0.6225000023841858
          0.9571999907493591 0.013199999928474426 -0.28929999470710754 -0.9196000099182129 -0.29120001196861267 0.26339998841285706
          0.8098999857902527 -0.08169999718666077 0.5807999968528748 -0.5482000112533569 -0.2635999917984009 0.7936999797821045
          -0.8116999864578247 -0.2685999870300293 0.5187000036239624 0.6144999861717224 -0.15770000219345093 0.7730000019073486
          -0.8991000056266785 -0.09600000083446503 -0.4269999861717224 -0.23569999635219574 -0.2962999939918518 0.9254999756813049
          0.22709999978542328 -0.25130000710487366 0.9409000277519226 0.8999000191688538 -0.01720000058412552 -0.435699999332428
          -0.8378999829292297 -0.39320001006126404 -0.37860000133514404 -0.7576000094413757 -0.15870000422000885 -0.6330000162124634
          -0.5906000137329102 -0.5382999777793884 -0.6011999845504761 0.8440999984741211 -0.08889999985694885 -0.5286999940872192
          -0.6015999913215637 0.10589999705553055 -0.791700005531311 -0.5473999977111816 -0.1451999992132187 -0.8241999745368958
          -0.17710000276565552 -0.9401000142097473 -0.29109999537467957 -0.6952000260353088 -0.6952999830245972 -0.18209999799728394
          -0.5045999884605408 0.2395000010728836 -0.8294000029563904 -0.07609999924898148 -0.10170000046491623 -0.9919000267982483
          0.0925000011920929 -0.02070000022649765 -0.9955000281333923 -0.11010000109672546 0.23109999299049377 0.96670001745224
          0.46299999952316284 0.46860000491142273 0.7523000240325928 0.32330000400543213 0.3605000078678131 0.8748999834060669
          -0.33169999718666077 0.3138999938964844 0.8895999789237976 0.5422999858856201 0.49570000171661377 0.6783999800682068
          0.7181000113487244 0.47130000591278076 0.5120000243186951 -0.7192000150680542 0.4066999852657318 0.5633000135421753
          0.8640000224113464 0.3991999924182892 0.3068000078201294 0.925599992275238 0.35760000348091125 0.12359999865293503
          -0.5313000082969666 -0.5403000116348267 -0.6524999737739563 -0.21160000562667847 -0.6327999830245972 -0.7447999715805054
          -0.06920000165700912 -0.7226999998092651 -0.6876000165939331 0.0820000022649765 -0.5565000176429749 -0.82669997215271
          0.02250000089406967 -0.6172999739646912 -0.7864000201225281 -0.8962000012397766 0.2921999990940094 0.3337000012397766
          0.9611999988555908 0.27570000290870667 -0.006599999964237213 -0.8223999738693237 -0.40959998965263367 -0.39480000734329224
          0.17669999599456787 -0.5037000179290771 -0.8456000089645386 0.5178999900817871 -0.6764000058174133 -0.5236999988555908
          0.7305999994277954 -0.4810999929904938 -0.484499990940094 -0.9416999816894531 -0.3167000114917755 -0.11330000311136246
          0.8051999807357788 -0.5586000084877014 0.1987999975681305 -0.968999981880188 -0.2224999964237213 0.10689999908208847
          0.6380000114440918 -0.39879998564720154 0.6586999893188477 0.6133000254631042 0.021299999207258224 0.7894999980926514
          0.47519999742507935 -0.11400000005960464 0.8725000023841858 -0.9243000149726868 0.08789999783039093 -0.37130001187324524
          0.9480999708175659 0.12409999966621399 -0.29260000586509705 -0.9502999782562256 -0.2029999941587448 0.23569999635219574
          0.6175000071525574 0.19679999351501465 0.7616000175476074 0.680400013923645 0.4575999975204468 0.5723999738693237
          0.9297000169754028 0.11869999766349792 -0.34869998693466187 -0.8650000095367432 -0.29330000281333923 0.40709999203681946
          0.8269000053405762 0.16110000014305115 0.5386999845504761 0.867900013923645 0.46869999170303345 0.16459999978542328
          -0.6360999941825867 -0.4156999886035919 0.6499999761581421 -0.1005999967455864 -0.34540000557899475 0.9330000281333923
          0.5602999925613403 0.16259999573230743 0.8120999932289124 -0.8565999865531921 0.05920000001788139 -0.512499988079071
          0.9018999934196472 0.09049999713897705 -0.4223000109195709 -0.7512999773025513 0.07119999825954437 -0.6560999751091003
          0.8364999890327454 0.057100001722574234 -0.5449000000953674 -0.6669999957084656 0.16500000655651093 -0.7264999747276306
          -0.5763999819755554 0.2655999958515167 -0.7728000283241272 0.7820000052452087 0.038100000470876694 -0.6220999956130981
          0.5856999754905701 0.02810000069439411 -0.8100000023841858 -0.35690000653266907 0.2029000073671341 -0.9118000268936157
          0.34610000252723694 0.14669999480247498 -0.9265999794006348 0.11029999703168869 0.09139999747276306 -0.9897000193595886
          -0.13809999823570251 0.18799999356269836 -0.9724000096321106 0.3467999994754791 0.41679999232292175 0.8402000069618225
          0.13359999656677246 0.2741999924182892 0.9523000121116638 0.012299999594688416 0.2282000035047531 0.9735000133514404
          -0.22120000422000885 0.20399999618530273 0.9535999894142151 0.5781999826431274 0.4537999927997589 0.6779999732971191
          -0.3352999985218048 0.30410000681877136 0.891700029373169 -0.5103999972343445 0.38370001316070557 0.7695000171661377
          0.7565000057220459 0.45730000734329224 0.4675000011920929 0.8942000269889832 0.4027999937534332 0.19519999623298645
          -0.5350000262260437 -0.5473999977111816 -0.6434999704360962 -0.1753000020980835 -0.4207000136375427 -0.8901000022888184
          -0.3384000062942505 -0.49390000104904175 -0.8009999990463257 -0.05040000006556511 -0.4593999981880188 -0.8867999911308289
          0.1501999944448471 -0.3797999918460846 -0.9128000140190125 -0.7975000143051147 0.4537999927997589 0.39739999175071716
          -0.701200008392334 -0.4408000111579895 -0.5604000091552734 -0.8445000052452087 -0.45809999108314514 -0.27720001339912415
          0.23469999432563782 -0.335099995136261 -0.9124000072479248 0.3222000002861023 -0.3903999924659729 -0.8623999953269958
          0.9682999849319458 0.1973000019788742 -0.15330000221729279 -0.9394999742507935 -0.3384000062942505 -0.05270000174641609
          0.42739999294281006 -0.2973000109195709 -0.8537999987602234 -0.8962000012397766 0.392300009727478 0.20730000734329224
          -0.932200014591217 0.34619998931884766 -0.1054999977350235 -0.9708999991416931 -0.21739999949932098 0.09989999979734421
          0.44749999046325684 -0.30300000309944153 0.8413000106811523 0.6571999788284302 -0.4620000123977661 0.5954999923706055
          0.387800008058548 0.0013000000035390258 0.9217000007629395 0.2655999958515167 -0.04089999943971634 0.9631999731063843
          -0.8762999773025513 0.2531999945640564 -0.4097999930381775 0.5861999988555908 0.11349999904632568 0.8021000027656555
          -0.8428000211715698 0.2249000072479248 -0.48899999260902405 0.8052999973297119 0.47600001096725464 0.35339999198913574
          0.9126999974250793 0.24390000104904175 0.3276999890804291 0.9160000085830688 0.21299999952316284 -0.3400000035762787
          -0.7971000075340271 -0.3034000098705292 0.5220999717712402 0.7361000180244446 0.24950000643730164 0.6291000247001648
          0.9710999727249146 0.12639999389648438 -0.20229999721050262 0.739799976348877 0.6198999881744385 0.2615000009536743
          -0.7633000016212463 0.26170000433921814 -0.5906000137329102 -0.4699000120162964 -0.6513000130653381 0.59579998254776
          0.03420000150799751 -0.5852000117301941 0.8101000189781189 0.8679999709129333 -0.2913999855518341 0.40209999680519104
          -0.06679999828338623 -0.9517999887466431 0.2992999851703644 -0.5483999848365784 -0.7014999985694885 0.45509999990463257
          0.8673999905586243 0.18279999494552612 -0.462799996137619 -0.4309999942779541 -0.3431999981403351 0.8345000147819519
          0.4643000066280365 -0.34549999237060547 0.815500020980835 -0.10530000180006027 -0.13220000267028809 0.9855999946594238
          -0.6524999737739563 0.33059999346733093 -0.6818000078201294 0.7246999740600586 0.14149999618530273 -0.6743000149726868
          -0.5679000020027161 0.4047999978065491 -0.7166000008583069 -0.2863999903202057 0.3515999913215637 -0.8913000226020813
          -0.45500001311302185 0.38519999384880066 -0.8027999997138977 0.5249999761581421 0.20649999380111694 -0.8256000280380249
          0.26190000772476196 0.25380000472068787 -0.9311000108718872 0.07180000096559525 0.33719998598098755 -0.9387000203132629
          -0.14900000393390656 0.4092999994754791 -0.9000999927520752 0.47620001435279846 0.3424000144004822 0.8098999857902527