<?xml version="1.0"?>
<VTKFile type="PolyData" version="0.1" byte_order="LittleEndian" header_type="UInt32" compressor="vtkZLibDataCompressor">
  <PolyData>
    <FieldData>
      <Array type="String" Name="MaterialNames" NumberOfTuples="1" format="ascii">
        109 97 116 101 114 105 97 108 95 48 0
      </Array>
      <Array type="String" Name="MaterialLibraries" NumberOfTuples="1" format="ascii">
        109 97 116 101 114 105 97 108 46 109 116 108 0
      </Array>
    </FieldData>
    <Piece NumberOfPoints="17620" NumberOfVerts="0" NumberOfLines="0" NumberOfStrips="0" NumberOfPolys="35754">
      <PointData Normals="Normals">
        <DataArray type="Float32" Name="Normals" NumberOfComponents="3" format="ascii" RangeMin="0.9999225636076667" RangeMax="1.0000761759651788">
          -0.24040000140666962 -0.02630000002682209 -0.970300018787384 -0.23180000483989716 0.006099999882280827 -0.9726999998092651
          -0.3328999876976013 0.006200000178068876 -0.9429000020027161 0.3190999925136566 0.050599999725818634 0.946399986743927
          0.1525000035762787 0.007499999832361937 0.9883000254631042 0.33379998803138733 0.027499999850988388 0.942300021648407
          0.9627000093460083 -0.2660999894142151 -0.049800001084804535 0.9732000231742859 -0.20829999446868896 -0.09690000116825104
          0.9613999724388123 -0.25459998846054077 0.10400000214576721 0.820900022983551 0.2766999900341034 -0.49959999322891235
          0.6729999780654907 0.7396000027656555 0.004399999976158142 0.4812999963760376 0.48829999566078186 -0.7279000282287598
          0.24639999866485596 0.3073999881744385 0.9190999865531921 0.3001999855041504 0.21649999916553497 0.9290000200271606
          0.2295999974012375 0.11339999735355377 0.9666000008583069 0.14550000429153442 -0.05590000003576279 0.9878000020980835
          0.023600000888109207 0.007799999788403511 0.9997000098228455 0.12520000338554382 -0.04650000110268593 0.9909999966621399
          0.9811999797821045 -0.020600000396370888 -0.19169999659061432 0.9677000045776367 -0.011599999852478504 -0.25200000405311584
          0.9993000030517578 -0.031099999323487282 -0.022600000724196434 -0.3495999872684479 0.32670000195503235 -0.8780999779701233
          -0.20440000295639038 0.17739999294281006 -0.9627000093460083 0.1347000002861023 0.15960000455379486 -0.9779000282287598
          -0.1363999992609024 -0.06469999998807907 0.9884999990463257 0.09210000187158585 -0.02879999950528145 0.9952999949455261
          -0.030400000512599945 -0.022600000724196434 0.9993000030517578 -0.3441999852657318 -0.025499999523162842 0.9384999871253967
          -0.17659999430179596 -0.1339000016450882 0.9750999808311462 -0.3019999861717224 -0.18809999525547028 0.9345999956130981
          0.4587000012397766 -0.006800000090152025 -0.8884999752044678 0.3418000042438507 0.006300000008195639 -0.9397000074386597
          0.6309000253677368 0.04919999837875366 -0.7742999792098999 -0.40560001134872437 0.08139999955892563 -0.9103999733924866
          -0.4973999857902527 0.08579999953508377 -0.8632000088691711 -0.2533999979496002 0.06769999861717224 -0.9649999737739563
          -0.3946000039577484 -0.05400000140070915 -0.9172999858856201 -0.5777999758720398 -0.04969999939203262 -0.8147000074386597
          -0.4986000061035156 -0.0575999990105629 -0.8648999929428101 0.5972999930381775 -0.31450000405311584 -0.7378000020980835
          0.6464999914169312 -0.3434000015258789 -0.6812999844551086 0.6399999856948853 -0.385699987411499 -0.6644999980926514
          0.5906999707221985 0.05090000107884407 -0.8052999973297119 0.41350001096725464 0.09099999815225601 -0.9059000015258789
          0.5263000130653381 0.06599999964237213 -0.8478000164031982 0.5335999727249146 -0.12080000340938568 0.8371000289916992
          0.23489999771118164 -0.10970000177621841 0.9657999873161316 0.07490000128746033 -0.11169999837875366 0.9908999800682068
          -0.9887999892234802 -0.012199999764561653 -0.148499995470047 -0.9976000189781189 0.05530000105500221 0.042500000447034836
          -0.9941999912261963 0.06560000032186508 -0.08540000021457672 -0.5533000230789185 0.11129999905824661 -0.8255000114440918
          -0.4571000039577484 0.21889999508857727 -0.8619999885559082 -0.413100004196167 0.0008999999845400453 -0.9107000231742859
          0.37950000166893005 -0.020600000396370888 0.925000011920929 0.4372999966144562 0.004999999888241291 0.8992999792098999
          0.42890000343322754 -0.051100000739097595 0.9018999934196472 -0.05000000074505806 -0.18690000474452972 -0.9811000227928162
          0.0908999964594841 -0.07029999792575836 -0.993399977684021 -0.0340999998152256 -0.195700004696846 -0.9800999760627747
          0.607699990272522 -0.2386000007390976 -0.7573999762535095 0.7728000283241272 -0.5839999914169312 0.2483000010251999
          0.9337999820709229 0.15289999544620514 0.32359999418258667 -0.22020000219345093 -0.9212999939918518 -0.32030001282691956
          -0.2775999903678894 -0.7894999980926514 -0.5473999977111816 -0.15629999339580536 -0.5759999752044678 -0.8023999929428101
          0.4133000075817108 0.4851999878883362 0.7705000042915344 0.5284000039100647 0.4587000012397766 0.7143999934196472
          0.4681999981403351 0.47369998693466187 0.7458999752998352 -0.757099986076355 -0.6507999897003174 -0.05719999969005585
          -0.6098999977111816 -0.7867000102996826 -0.09589999914169312 -0.4560000002384186 -0.5702999830245972 -0.6832000017166138
          -0.3476000130176544 -0.9373999834060669 0.023600000888109207 -0.19930000603199005 -0.9186000227928162 -0.34119999408721924
          -0.4131999909877777 -0.708299994468689 -0.5723999738693237 -0.19480000436306 -0.5113999843597412 -0.8370000123977661
          -0.7027000188827515 -0.6769999861717224 -0.21870000660419464 -0.47350001335144043 -0.0649000033736229 -0.8784000277519226
          -0.8303999900817871 -0.552299976348877 -0.0737999975681305 -0.782800018787384 -0.5012000203132629 0.36880001425743103
          -0.6958000063896179 -0.5213000178337097 0.49399998784065247 -0.5435000061988831 -0.6270999908447266 -0.5580000281333923
          -0.8533999919891357 -0.5063999891281128 0.12349999696016312 -0.3968000113964081 -0.8682000041007996 -0.29809999465942383
          0.18219999969005585 -0.03099999949336052 0.9828000068664551 0.1817999929189682 0.3337000012397766 0.925000011920929
          0.6198999881744385 0.03229999914765358 0.7839999794960022 0.21860000491142273 0.4948999881744385 -0.8410000205039978
          -0.27140000462532043 0.06360000371932983 -0.9603999853134155 0.2094999998807907 0.21330000460147858 -0.9542999863624573
          0.19099999964237213 0.527999997138977 -0.8274999856948853 0.12610000371932983 0.320499986410141 -0.9387999773025513
          -0.10620000213384628 -0.5049999952316284 -0.8565000295639038 -0.2547999918460846 -0.6990000009536743 -0.6682000160217285
          -0.8223000168800354 -0.4722000062465668 -0.3176000118255615 -0.5493000149726868 -0.77920001745224 -0.3019999861717224
          0.904699981212616 0.33489999175071716 0.26350000500679016 0.9625999927520752 0.2628999948501587 0.06589999794960022
          0.9513999819755554 0.29899999499320984 0.0737999975681305 0.19359999895095825 -0.2784999907016754 -0.9406999945640564
          0.3271999955177307 -0.3278000056743622 -0.8863000273704529 0.18940000236034393 0.029200000688433647 -0.9815000295639038
          -0.49889999628067017 -0.04529999941587448 0.8654999732971191 -0.41920000314712524 -0.15919999778270721 0.8938000202178955
          -0.7317000031471252 -0.13089999556541443 0.6689000129699707 -0.07699999958276749 -0.5062000155448914 -0.859000027179718
          0.4366999864578247 -0.12240000069141388 -0.8913000226020813 0.21369999647140503 0.05920000001788139 -0.9750999808311462
          -0.4551999866962433 -0.03849999979138374 -0.8895999789237976 -0.5580999851226807 -0.11550000309944153 -0.8216999769210815
          -0.48919999599456787 -0.10559999942779541 -0.8657000064849854 0.4002000093460083 0.0803999975323677 0.9128999710083008
          0.5195000171661377 0.026200000196695328 0.8540999889373779 -0.534500002861023 -0.6205999851226807 -0.5737000107765198
          -0.31439998745918274 -0.8740000128746033 -0.37040001153945923 -0.36160001158714294 -0.9235000014305115 -0.12800000607967377
          0.41929998993873596 0.9060999751091003 0.05570000037550926 0.3228999972343445 0.9390000104904175 0.11890000104904175
          0.3028999865055084 0.9395999908447266 -0.15919999778270721 0.8604999780654907 -0.10480000078678131 0.4986000061035156
          0.6830999851226807 -0.10719999670982361 0.7224000096321106 0.8453999757766724 -0.10440000146627426 0.5238999724388123
          -0.9210000038146973 0.05299999937415123 -0.38600000739097595 -0.8809000253677368 0.01860000006854534 -0.47290000319480896
          -0.8320000171661377 0.06840000301599503 -0.5504999756813049 0.19349999725818634 0.1526000052690506 -0.9692000150680542
          0.1979999989271164 0.41269999742507935 -0.8891000151634216 -0.4690000116825104 0.4902999997138977 -0.7346000075340271
          0.07129999995231628 0.003800000064074993 0.9973999857902527 0.010099999606609344 0.018200000748038292 0.9998000264167786
          0.0835999995470047 0.12229999899864197 0.9890000224113464 0.27390000224113464 0.1906999945640564 0.9427000284194946
          0.28189998865127563 0.38119998574256897 0.8804000020027161 0.32199999690055847 0.05139999836683273 0.9452999830245972
          0.21709999442100525 0.20759999752044678 0.9538000226020813 0.010499999858438969 -0.27250000834465027 0.9621000289916992
          -0.29829999804496765 -0.1826999932527542 0.9368000030517578 0.32120001316070557 -0.03139999881386757 -0.9465000033378601
          0.44780001044273376 -0.019600000232458115 -0.8938999772071838 0.5346999764442444 0.08529999852180481 -0.8406999707221985
          -0.8070999979972839 -0.5085999965667725 -0.29980000853538513 -0.6049000024795532 -0.7688999772071838 -0.2071000039577484
          -0.5404999852180481 -0.5713000297546387 -0.6176999807357788 -0.2597000002861023 -0.2020999938249588 -0.9442999958992004
          -0.527999997138977 -0.45680001378059387 -0.7159000039100647 -0.1379999965429306 -0.2996000051498413 -0.9440000057220459
          -0.6438999772071838 -0.5963000059127808 -0.47929999232292175 -0.5723000168800354 -0.12380000203847885 0.810699999332428
          -0.13510000705718994 0.4131999909877777 0.900600016117096 -0.1891999989748001 0.11500000208616257 0.9751999974250793
          0.18799999356269836 -0.3447999954223633 -0.919700026512146 -0.29589998722076416 -0.19220000505447388 -0.935699999332428
          -0.0940999984741211 -0.21899999678134918 -0.9711999893188477 -0.040300000458955765 -0.5954999923706055 0.802299976348877
          -0.28690001368522644 -0.7002000212669373 -0.6536999940872192 -0.9616000056266785 -0.22759999334812164 -0.1535000056028366
          0.5077000260353088 -0.8503999710083008 0.13830000162124634 0.04190000146627426 0.03220000118017197 -0.9986000061035156
          0.14550000429153442 0.38920000195503235 0.909600019454956 0.04529999941587448 0.33640000224113464 0.9405999779701233
          -0.08959999680519104 0.5669999718666077 0.8188999891281128 -0.36489999294281006 -0.1923000067472458 0.9110000133514404
          -0.7328000068664551 -0.029500000178813934 0.6797999739646912 -0.7498999834060669 0.06080000102519989 0.6586999893188477
          -0.7889999747276306 0.011800000444054604 0.614300012588501 -0.6743999719619751 -0.11089999973773956 -0.7300000190734863
          -0.7894999980926514 -0.11309999972581863 -0.6032999753952026 -0.7565000057220459 -0.13529999554157257 -0.6398000121116638
          0.8898000121116638 -0.1225999966263771 0.43959999084472656 0.8798999786376953 -0.14910000562667847 0.451200008392334
          0.8069999814033508 -0.16249999403953552 0.567799985408783 0.9294000267982483 -0.12690000236034393 0.3465999960899353
          0.9262999892234802 -0.08900000154972076 0.3659999966621399 0.9273999929428101 -0.10890000313520432 0.3580000102519989
          -0.48809999227523804 0.22779999673366547 -0.8424999713897705 -0.6328999996185303 0.11969999969005585 -0.7649000287055969
          -0.5059000253677368 0.1185000017285347 -0.8543999791145325 0.9994000196456909 0.01140000019222498 -0.0333000011742115
          0.9598000049591064 0.009499999694526196 -0.2806999981403351 0.965499997138977 -0.011500000022351742 -0.26019999384880066
          -0.9309999942779541 0.24040000140666962 -0.27469998598098755 -0.8798999786376953 0.211899995803833 -0.4253000020980835
          -0.9347000122070312 0.3163999915122986 -0.16210000216960907 -0.026499999687075615 -0.051500000059604645 0.9983000159263611
          0.08919999748468399 -0.05040000006556511 0.994700014591217 0.20309999585151672 0.043299999088048935 0.9782000184059143
          -0.1738000065088272 -0.0031999999191612005 -0.9847999811172485 -0.8187999725341797 -0.48500001430511475 -0.30720001459121704
          -0.3346000015735626 -0.3614000082015991 -0.8702999949455261 0.1371999979019165 -0.8323000073432922 -0.5370000004768372
          0.7263000011444092 -0.6340000033378601 -0.2655999958515167 0.4499000012874603 -0.612500011920929 -0.6499000191688538
          -0.28290000557899475 -0.24240000545978546 -0.9279999732971191 -0.5185999870300293 -0.6240000128746033 -0.5845000147819519
          -0.4503999948501587 -0.3089999854564667 -0.8377000093460083 -0.03869999945163727 0.9495000243186951 0.31130000948905945
          0.13379999995231628 0.9258999824523926 0.35339999198913574 0.1655000001192093 0.916700005531311 0.3637000024318695
          0.051100000739097595 0.9983000159263611 0.026900000870227814 0.23319999873638153 0.9689000248908997 -0.08229999989271164
          0.14419999718666077 0.9840999841690063 -0.10360000282526016 0.2687000036239624 0.8927000164985657 0.3617999851703644
          0.23659999668598175 0.9491999745368958 -0.20739999413490295 0.9240999817848206 0.3479999899864197 -0.15770000219345093
          -0.07509999722242355 0.9860000014305115 0.14910000562667847 0.42649999260902405 0.9039999842643738 -0.029200000688433647
          0.7663999795913696 0.6365000009536743 0.08669999986886978 0.23899999260902405 -0.9702000021934509 -0.04010000079870224
          0.004800000227987766 -0.9603999853134155 0.2784999907016754 -0.07680000364780426 -0.4779999852180481 0.875
          0.9660999774932861 -0.25200000405311584 -0.05550000071525574 0.9878000020980835 -0.030400000512599945 -0.1527000069618225
          0.820900022983551 -0.4336000084877014 -0.3716000020503998 0.7311999797821045 0.22660000622272491 -0.6434000134468079
          0.9337000250816345 0.17640000581741333 -0.3116999864578247 0.7997000217437744 0.16269999742507935 -0.5778999924659729
          -0.9847000241279602 -0.17299999296665192 0.02239999920129776 -0.9801999926567078 -0.18369999527931213 -0.0738999992609024
          -0.9882000088691711 -0.13210000097751617 -0.07800000160932541 -0.3783000111579895 -0.8866000175476074 -0.26600000262260437
          0.5877000093460083 -0.7998999953269958 -0.1216999962925911 0.20659999549388885 -0.753000020980835 -0.6247000098228455
          0.7034000158309937 -0.6804999709129333 -0.20520000159740448 0.590399980545044 -0.2409999966621399 -0.7702999711036682
          -0.09399999678134918 -0.6556000113487244 -0.7491999864578247 -0.6590999960899353 -0.47200000286102295 0.5855000019073486
          -0.5638999938964844 -0.7056999802589417 0.42899999022483826 -0.9064000248908997 -0.33709999918937683 -0.25459998846054077
          0.6815000176429749 0.023000000044703484 -0.7315000295639038 0.6689000129699707 0.2281000018119812 -0.7074999809265137
          0.6614999771118164 -0.5565999746322632 -0.5024999976158142 -0.17730000615119934 -0.11599999666213989 0.9772999882698059
          0.07259999960660934 0.0026000000070780516 0.9973999857902527 -0.045899998396635056 -0.1582999974489212 0.986299991607666
          -0.5552999973297119 0.10270000249147415 0.8252999782562256 -0.23160000145435333 0.46619999408721924 0.8537999987602234
          -0.1185000017285347 0.4584999978542328 0.8806999921798706 -0.7735999822616577 -0.3546999990940094 -0.5250999927520752
          -0.8920000195503235 -0.20970000326633453 -0.4004000127315521 -0.8723999857902527 -0.3375000059604645 -0.35359999537467957
          0.1551000028848648 0.06300000101327896 -0.9858999848365784 0.2079000025987625 0.2743000090122223 -0.9388999938964844
          0.3149000108242035 -0.2240999937057495 -0.9222999811172485 0.618399977684021 0.06390000134706497 -0.7832000255584717
          0.6646999716758728 0.06509999930858612 -0.7443000078201294 0.06279999762773514 -0.6093000173568726 -0.7904999852180481
          -0.36820000410079956 -0.7211999893188477 -0.5867999792098999 -0.3215000033378601 -0.6931999921798706 -0.6450999975204468
          0.6427000164985657 0.40450000762939453 0.6506999731063843 0.23100000619888306 -0.37709999084472656 0.8968999981880188
          0.00419999985024333 -0.2240000069141388 0.9746000170707703 0.3440999984741211 0.05990000069141388 0.9369999766349792
          -0.8931000232696533 0.4081999957561493 -0.1891999989748001 -0.8242999911308289 0.484499990940094 -0.29269999265670776
          -0.7279000282287598 0.38690000772476196 0.566100001335144 0.5256999731063843 0.689300000667572 0.4984999895095825
          0.6942999958992004 0.5347999930381775 0.48159998655319214 0.34060001373291016 0.5425999760627747 0.767799973487854
          -0.029500000178813934 -0.3418999910354614 0.939300000667572 0.013500000350177288 -0.5489000082015991 0.8357999920845032
          -0.13930000364780426 -0.4020000100135803 0.9049999713897705 -0.3856000006198883 -0.7369999885559082 0.5551000237464905
          -0.5964000225067139 -0.7949000000953674 0.1120000034570694 -0.7620999813079834 -0.6432999968528748 -0.0731000006198883
          -0.43720000982284546 0.11819999665021896 0.8916000127792358 -0.21060000360012054 0.07890000194311142 0.974399983882904
          -0.9217000007629395 0.20569999516010284 0.32899999618530273 -0.2896000146865845 -0.2815000116825104 0.9147999882698059
          -0.18060000240802765 0.15189999341964722 0.9718000292778015 -0.6140000224113464 -0.09309999644756317 0.7838000059127808
          0.010400000028312206 -0.6668999791145325 -0.7451000213623047 -0.43939998745918274 -0.890999972820282 0.11389999836683273
          -0.21709999442100525 -0.6481999754905701 -0.7299000024795532 0.6506999731063843 0.10610000044107437 0.7519000172615051
          0.5723999738693237 0.20720000565052032 0.7932999730110168 0.4496999979019165 0.03799999877810478 0.8924000263214111
          -0.39340001344680786 -0.003000000026077032 -0.9193999767303467 -0.9199000000953674 -0.09880000352859497 -0.37959998846054077
          -0.2669999897480011 -0.38440001010894775 -0.8837000131607056 0.23510000109672546 -0.5404999852180481 -0.8079000115394592
          0.17339999973773956 -0.2069000005722046 -0.9628999829292297 -0.5522000193595886 -0.5482000112533569 -0.6281999945640564
          0.4684000015258789 0.19920000433921814 -0.8607000112533569 0.5436999797821045 0.22040000557899475 -0.8098000288009644
          0.3621000051498413 0.3691999912261963 -0.85589998960495 -0.0020000000949949026 -0.01590000092983246 -0.9998999834060669
          -0.17790000140666962 0.14839999377727509 -0.9728000164031982 0.08470000326633453 -0.1467999964952469 -0.9854999780654907
          0.09149999916553497 0.09160000085830688 0.991599977016449 0.09629999846220016 -0.1964000016450882 0.9757999777793884
          -0.08389999717473984 0.06620000302791595 0.9943000078201294 0.5185999870300293 -0.32109999656677246 0.7925000190734863
          0.2565999925136566 -0.4684999883174896 0.8453999757766724 0.633899986743927 -0.13840000331401825 0.7609999775886536
          0.44589999318122864 0.15160000324249268 -0.8822000026702881 0.4481000006198883 0.3059000074863434 -0.8399999737739563
          0.5242000222206116 0.2632000148296356 -0.8098999857902527 -0.1289999932050705 0.3084000051021576 0.9424999952316284
          -0.17759999632835388 -0.2912999987602234 0.9399999976158142 0.3684999942779541 -0.07109999656677246 0.9269000291824341
          -0.06499999761581421 -0.9345999956130981 -0.3495999872684479 0.499099999666214 -0.7524999976158142 0.4296000003814697
          0.7976999878883362 -0.5971999764442444 -0.08380000293254852 0.07919999957084656 0.0013000000035390258 -0.9969000220298767
          -0.10140000283718109 -0.09279999881982803 -0.9904999732971191 -0.05420000106096268 0.10249999910593033 -0.9933000206947327
          0.43799999356269836 0.3012999892234802 0.847000002861023 0.33149999380111694 0.39559999108314514 0.8565000295639038
          0.72079998254776 0.5960000157356262 0.3538999855518341 0.04490000009536743 -0.994700014591217 -0.09220000356435776
          0.3564999997615814 -0.9265999794006348 -0.1193000003695488 0.37389999628067017 -0.5562999844551086 -0.7421000003814697
          -0.02850000001490116 -0.17560000717639923 -0.9840999841690063 -0.36309999227523804 -0.266400009393692 -0.8928999900817871
          -0.24480000138282776 -0.328900009393692 -0.9121000170707703 -0.13860000669956207 -0.7602999806404114 0.6345999836921692
          -0.04039999842643738 -0.7878999710083008 0.6144999861717224 -0.14390000700950623 -0.6266999840736389 0.7659000158309937
          -0.3433000147342682 0.1356000006198883 -0.9294000267982483 -0.008799999952316284 0.13660000264644623 -0.9905999898910522
          -0.3792000114917755 -0.08420000225305557 -0.921500027179718 -0.30480000376701355 -0.12790000438690186 -0.9437999725341797
          -0.36390000581741333 -0.07180000096559525 -0.9286999702453613 -0.365200012922287 -0.1324000060558319 -0.921500027179718
          0.8883000016212463 -0.06120000034570694 -0.4551999866962433 0.7253999710083008 0.014100000262260437 -0.6881999969482422
          0.777999997138977 -0.018400000408291817 -0.628000020980835 -0.8284000158309937 0.2240999937057495 -0.5134000182151794
          -0.9746999740600586 0.12070000171661377 -0.1882999986410141 -0.7426000237464905 0.05040000006556511 -0.6678000092506409
          -0.9488000273704529 0.01899999938905239 -0.31529998779296875 -0.9955999851226807 -0.06599999964237213 -0.06629999727010727
          -0.9366000294685364 0.03229999914765358 -0.3488999903202057 0.9850000143051147 0.13729999959468842 -0.10429999977350235
          0.9763000011444092 0.1412999927997589 -0.16419999301433563 0.9742000102996826 0.11479999870061874 -0.19449999928474426
          0.7268000245094299 0.11339999735355377 -0.6773999929428101 0.8392999768257141 0.13009999692440033 -0.527899980545044
          0.704800009727478 0.08299999684095383 -0.7045999765396118 -0.18719999492168427 0.25 -0.949999988079071
          -0.10589999705553055 0.17880000174045563 -0.9782000184059143 -0.21789999306201935 0.3935000002384186 -0.8931999802589417
          0.6277999877929688 -0.03700000047683716 -0.7774999737739563 0.8543000221252441 -0.08209999650716782 -0.5133000016212463
          0.8830000162124634 0.007199999876320362 -0.46939998865127563 -0.3264000117778778 0.029500000178813934 0.9448000192642212
          -0.31290000677108765 -0.07209999859333038 0.9470000267028809 -0.29510000348091125 0.006899999920278788 0.9553999900817871
          -0.9075999855995178 -0.14010000228881836 0.39579999446868896 -0.9261000156402588 -0.17219999432563782 0.33570000529289246
          -0.930899977684021 -0.17880000174045563 0.31839999556541443 -0.7641000151634216 0.4643999934196472 0.44780001044273376
          -0.9049000144004822 0.3181000053882599 0.28290000557899475 -0.9074000120162964 0.4162999987602234 0.05739999935030937
          -0.90829998254776 -0.32359999418258667 -0.26499998569488525 -0.8956000208854675 -0.3276999890804291 -0.30090001225471497
          -0.8050000071525574 -0.41100001335144043 -0.4277999997138977 -0.27720001339912415 -0.23649999499320984 -0.9312999844551086
          -0.5139999985694885 -0.024299999698996544 -0.8575000166893005 -0.1428000032901764 -0.23839999735355377 -0.9606000185012817
          0.18170000612735748 0.2964000105857849 0.9376000165939331 0.20100000500679016 0.2831999957561493 0.9376999735832214
          0.019600000232458115 0.27900001406669617 0.960099995136261 -0.741599977016449 -0.05460000038146973 -0.6686000227928162
          -0.6484000086784363 -0.2766000032424927 -0.7092999815940857 -0.5097000002861023 -0.2842000126838684 -0.8119999766349792
          0.4462999999523163 -0.04919999837875366 0.8934999704360962 0.17599999904632568 0.19519999623298645 0.9648000001907349
          0.5730000138282776 -0.0689999982714653 0.8166999816894531 0.32749998569488525 -0.8324999809265137 -0.44690001010894775
          0.5253000259399414 -0.8452000021934509 -0.09849999845027924 0.8847000002861023 -0.4185999929904938 -0.2053000032901764
          -0.3815999925136566 -0.23000000417232513 -0.8952999711036682 -0.27570000290870667 -0.263700008392334 -0.9243999719619751
          -0.48579999804496765 -0.25929999351501465 -0.8346999883651733 0.515999972820282 0.1662999987602234 0.8403000235557556
          0.3181999921798706 -0.7113999724388123 0.6266000270843506 -0.06459999829530716 0.4025999903678894 0.913100004196167
          -0.15520000457763672 0.29170000553131104 0.9437999725341797 -0.014399999752640724 -0.07940000295639038 0.9966999888420105
          -0.19099999964237213 0.10520000010728836 0.9758999943733215 0.3634999990463257 -0.9276999831199646 0.0851999968290329
          0.628600001335144 -0.7156999707221985 -0.3041999936103821 -0.3149999976158142 0.2599000036716461 -0.9128000140190125
          -0.3440000116825104 0.018400000408291817 -0.9387999773025513 -0.29030001163482666 0.13950000703334808 -0.9466999769210815
          0.3531000018119812 -0.021700000390410423 0.9354000091552734 0.3977999985218048 0.026100000366568565 0.9171000123023987
          0.37929999828338623 0.027699999511241913 0.9248999953269958 0.6958000063896179 -0.10109999775886536 -0.7110000252723694
          0.6855000257492065 -0.17829999327659607 -0.7059000134468079 0.7016000151634216 -0.03539999946951866 -0.7117000222206116
          -0.42980000376701355 -0.8294000029563904 0.35690000653266907 -0.19419999420642853 -0.9128999710083008 0.35910001397132874
          -0.30140000581741333 -0.953499972820282 0.004800000227987766 -0.3813000023365021 -0.9014000296592712 -0.20509999990463257
          -0.4643999934196472 -0.8853999972343445 -0.020400000736117363 -0.4645000100135803 -0.8650000095367432 -0.18979999423027039
          0.07129999995231628 -0.09690000116825104 -0.9926999807357788 -0.2079000025987625 -0.5925999879837036 -0.7781999707221985
          0.2840000092983246 0.23240000009536743 -0.9301999807357788 0.08540000021457672 -0.19930000603199005 0.9761999845504761
          0.21199999749660492 -0.06589999794960022 0.9750999808311462 0.1736000031232834 -0.18619999289512634 0.9671000242233276
          -0.7135000228881836 -0.6478999853134155 0.26669999957084656 -0.1460999995470047 -0.9477999806404114 -0.2833000123500824
          -0.2524999976158142 -0.957099974155426 0.14239999651908875 0.38999998569488525 -0.6406999826431274 0.6614000201225281
          0.003000000026077032 0.8379999995231628 -0.5457000136375427 -0.0348999984562397 0.7939000129699707 -0.6069999933242798
          -0.1662999987602234 0.6773999929428101 -0.7164999842643738 -0.02199999988079071 0.9660999774932861 -0.2572000026702881
          -0.33070001006126404 0.8460999727249146 -0.4180000126361847 -0.16290000081062317 0.9240999817848206 -0.3456999957561493
          0.9987000226974487 -0.029600000008940697 -0.0406000018119812 0.9868999719619751 -0.08380000293254852 -0.13760000467300415
          0.980400025844574 0.17800000309944153 0.0843999981880188 0.4406999945640564 0.8819000124931335 -0.16750000417232513
          0.5519999861717224 0.7833999991416931 -0.2854999899864197 0.3343000113964081 0.8837000131607056 -0.32760000228881836
          -0.29440000653266907 -0.01360000018030405 -0.9556000232696533 -0.6675999760627747 -0.211899995803833 -0.713699996471405
          -0.72079998254776 -0.17339999973773956 -0.6711000204086304 -0.8928999900817871 -0.25929999351501465 0.36809998750686646
          -0.9171000123023987 -0.08659999817609787 -0.38909998536109924 -0.9395999908447266 -0.30649998784065247 0.1527000069618225
          -0.2906999886035919 -0.8400999903678894 0.4578999876976013 -0.5187000036239624 -0.7717000246047974 0.36809998750686646
          -0.3328000009059906 -0.9363999962806702 -0.1111999973654747 0.2637999951839447 -0.7286999821662903 0.6319000124931335
          0.3292999863624573 -0.4659000039100647 0.8212000131607056 0.5670999884605408 -0.11050000041723251 0.8162000179290771
          -0.05990000069141388 0.9103000164031982 -0.40950000286102295 -0.2838999927043915 0.8989999890327454 0.3334999978542328
          -0.8004000186920166 0.5939000248908997 -0.08150000125169754 -0.2948000133037567 0.484499990940094 0.8235999941825867
          -0.20149999856948853 0.534600019454956 0.8208000063896179 -0.25540000200271606 0.37299999594688416 0.8920000195503235
          0.5386999845504761 0.13539999723434448 -0.8314999938011169 0.11330000311136246 0.31139999628067017 -0.9434999823570251
          0.1923000067472458 -0.4300000071525574 -0.882099986076355 -0.38530001044273376 -0.8457000255584717 -0.3693000078201294
          -0.06520000100135803 -0.9976000189781189 -0.024000000208616257 0.36820000410079956 -0.5940999984741211 -0.7152000069618225
          -0.36419999599456787 0.09679999947547913 0.9262999892234802 -0.3393999934196472 0.4519999921321869 0.8248999714851379
          -0.27900001406669617 0.3334999978542328 0.9004999995231628 -0.4237000048160553 -0.6438000202178955 0.6371999979019165
          -0.6787999868392944 -0.5145999789237976 0.5238999724388123 -0.6721000075340271 -0.41769999265670776 0.6114000082015991