<?xml version="1.0"?>
<VTKFile type="PolyData" version="0.1" byte_order="LittleEndian" header_type="UInt32" compressor="vtkZLibDataCompressor">
  <PolyData>
    <FieldData>
      <Array type="String" Name="MaterialNames" NumberOfTuples="1" format="ascii">
        109 97 116 101 114 105 97 108 95 48 0
      </Array>
      <Array type="String" Name="MaterialLibraries" NumberOfTuples="1" format="ascii">
        109 97 116 101 114 105 97 108 46 109 116 108 0
      </Array>
    </FieldData>
    <Piece NumberOfPoints="7229" NumberOfVerts="0" NumberOfLines="0" NumberOfStrips="0" NumberOfPolys="14691">
      <PointData Normals="Normals">
        <DataArray type="Float32" Name="Normals" NumberOfComponents="3" format="ascii" RangeMin="0.9999247590747387" RangeMax="1.000079375938037">
          -0.2578999996185303 -0.9621999859809875 0.08780000358819962 -0.33809998631477356 -0.9236999750137329 0.18039999902248383
          -0.29829999804496765 -0.9426000118255615 0.15000000596046448 -0.0414000004529953 -0.9639999866485596 0.26269999146461487
          -0.0706000030040741 -0.9467999935150146 0.31380000710487366 0.23960000276565552 -0.926800012588501 0.28929999470710754
          0.20990000665187836 -0.9771999716758728 -0.030799999833106995 0.6420999765396118 -0.7663999795913696 -0.017400000244379044
          0.8264999985694885 -0.47099998593330383 0.3084000051021576 -0.07999999821186066 -0.9825999736785889 -0.16769999265670776
          -0.0754999965429306 -0.9854999780654907 -0.15209999680519104 0.2791999876499176 -0.9563000202178955 -0.08699999749660492
          0.8779000043869019 -0.43389999866485596 -0.20239999890327454 0.9883999824523926 0.0038999998942017555 -0.15150000154972076
          0.4494999945163727 -0.8787000179290771 -0.1606999933719635 0.8508999943733215 -0.3977000117301941 -0.3433000147342682
          0.8939999938011169 -0.22190000116825104 -0.38929998874664307 0.31040000915527344 -0.8251000046730042 -0.47209998965263367
          0.9049000144004822 -0.24220000207424164 -0.3499000072479248 0.5976999998092651 -0.36149999499320984 -0.7156000137329102
          0.8528000116348267 0.025299999862909317 -0.5216000080108643 -0.1509999930858612 -0.9632999897003174 0.22169999778270721
          -0.3142000138759613 -0.9477999806404114 0.053599998354911804 -0.32019999623298645 -0.9452999830245972 -0.061500001698732376
          -0.05889999866485596 -0.9883999824523926 0.13979999721050262 0.06319999694824219 -0.9271000027656555 0.3695000112056732
          -0.008100000210106373 -0.9239000082015991 0.3824999928474426 0.40630000829696655 -0.645799994468689 0.646399974822998
          0.004399999976158142 -1 0.007600000128149986 0.12479999661445618 -0.9902999997138977 0.06080000102519989
          0.33959999680519104 -0.9358000159263611 0.0949999988079071 0.5274999737739563 -0.808899998664856 0.2597000002861023
          0.7580999732017517 -0.4415999948978424 0.4799000024795532 -0.16110000014305115 -0.9860000014305115 -0.04309999942779541
          -0.28200000524520874 -0.9487000107765198 -0.14319999516010284 0.0658000037074089 -0.9976999759674072 -0.013700000010430813
          0.8319000005722046 -0.4740999937057495 0.28850001096725464 0.2651999890804291 -0.9631999731063843 0.04360000044107437
          0.5663999915122986 -0.8136000037193298 0.13169999420642853 0.9121000170707703 -0.3328000009059906 0.23919999599456787
          -0.27480000257492065 -0.9466000199317932 0.16869999468326569 0.27239999175071716 -0.906499981880188 0.32269999384880066
          0.5633000135421753 -0.8198000192642212 0.1031000018119812 0.9405999779701233 -0.2685000002384186 0.2078000009059906
          -0.328900009393692 -0.9172000288963318 -0.2249000072479248 -0.6484000086784363 -0.5656999945640564 -0.5095999836921692
          -0.15489999949932098 -0.9629999995231628 0.2206999957561493 -0.12210000306367874 -0.9787999987602234 0.16459999978542328
          -0.1265999972820282 -0.9358000159263611 0.32899999618530273 -0.13009999692440033 -0.9365000128746033 0.3255999982357025
          -0.18240000307559967 -0.9207000136375427 0.3449000120162964 -0.3009999990463257 -0.8586999773979187 0.4147000014781952
          0.9664999842643738 0.2468000054359436 -0.07020000368356705 -0.41110000014305115 -0.2076999992132187 -0.8876000046730042
          -0.016499999910593033 -0.9966999888420105 -0.07989999651908875 0.04769999906420708 -0.994700014591217 0.09120000153779984
          -0.23989999294281006 -0.3580000102519989 -0.902400016784668 -0.009200000204145908 -0.8881000280380249 -0.4595000147819519
          0.10869999974966049 -0.9803000092506409 -0.16500000655651093 0.21529999375343323 -0.9606000185012817 -0.17589999735355377
          -0.07989999651908875 -0.00800000037997961 -0.9968000054359436 0.22679999470710754 -0.9660000205039978 -0.12370000034570694
          0.866599977016449 0.3569999933242798 -0.34880000352859497 0.14139999449253082 -0.5037000179290771 -0.8522999882698059
          0.19249999523162842 -0.9318000078201294 -0.3077000081539154 0.24619999527931213 -0.862500011920929 -0.4422000050544739
          0.2386000007390976 -0.24060000479221344 -0.9409000277519226 0.3555999994277954 -0.7906000018119812 -0.4986000061035156
          0.47519999742507935 -0.8133999705314636 -0.33559998869895935 0.5856999754905701 -0.7001000046730042 -0.4083999991416931
          0.6836000084877014 -0.22990000247955322 -0.6927000284194946 0.3472999930381775 -0.14159999787807465 -0.9269999861717224
          0.6134999990463257 -0.1987999975681305 -0.7642999887466431 0.6920999884605408 -0.23100000619888306 -0.683899998664856
          0.7721999883651733 -0.01720000058412552 -0.6351000070571899 -0.16140000522136688 -0.8690999746322632 0.4675000011920929
          -0.006800000090152025 -0.6488999724388123 0.7609000205993652 -0.1809999942779541 -0.9775000214576721 0.10849999636411667
          0.19359999895095825 -0.8986999988555908 0.3935999870300293 0.2754000127315521 -0.6337000131607056 0.7228999733924866
          -0.23160000145435333 -0.9595999717712402 -0.1597999930381775 0.17010000348091125 -0.9733999967575073 0.15379999577999115
          -0.2685999870300293 -0.9452000260353088 -0.18539999425411224 0.314300000667572 -0.8755000233650208 0.3671000003814697
          -0.28850001096725464 -0.9526000022888184 -0.09690000116825104 0.16410000622272491 -0.9721999764442444 0.16699999570846558
          0.4943000078201294 -0.5917999744415283 0.6367999911308289 0.21379999816417694 -0.8155999779701233 0.5376999974250793
          0.6216999888420105 -0.3653999865055084 0.692799985408783 -0.2685999870300293 -0.9531999826431274 0.1387999951839447
          -0.5566999912261963 -0.8299000263214111 0.03629999980330467 -0.4242999851703644 -0.9010999798774719 0.0892999991774559
          -0.4505000114440918 -0.8797000050544739 -0.15240000188350677 -0.7347000241279602 -0.6557999849319458 -0.17389999330043793
          -0.18080000579357147 -0.97079998254776 0.1574999988079071 -0.5741000175476074 -0.8129000067710876 0.09769999980926514
          -0.029100000858306885 -0.9362999796867371 0.35010001063346863 -0.16459999978542328 -0.964900016784668 0.20479999482631683
          -0.02290000021457672 -0.9301999807357788 0.36640000343322754 0.5386999845504761 -0.6446999907493591 0.5424000024795532
          -0.14669999480247498 -0.9879000186920166 -0.051100000739097595 -0.7225000262260437 -0.5526999831199646 -0.4153999984264374
          -0.2685999870300293 -0.9539999961853027 -0.13330000638961792 0.795799970626831 -0.11479999870061874 0.5946000218391418
          -0.6438000202178955 -0.2953000068664551 -0.7059000134468079 0.14640000462532043 -0.9797999858856201 0.1362999975681305
          0.33160001039505005 -0.9067999720573425 0.26030001044273376 0.8208000063896179 -0.43849998712539673 0.366100013256073
          -0.5946999788284302 -0.1987999975681305 -0.7789999842643738 0.10700000077486038 -0.6590999960899353 -0.7444000244140625
          -0.026900000870227814 -0.9908000230789185 -0.13230000436306 0.0957999974489212 -0.9952999949455261 0.015399999916553497
          0.521399974822998 -0.5600000023841858 0.6438000202178955 -0.5291000008583069 -0.7038999795913696 -0.4738999903202057
          0.9283999800682068 -0.03440000116825104 0.3698999881744385 -0.3278000056743622 -0.8041999936103821 -0.4957999885082245
          0.18690000474452972 -0.9686999917030334 0.1632000058889389 0.3450999855995178 -0.8870000243186951 0.3068000078201294
          -0.38960000872612 -0.34139999747276306 0.855400025844574 -0.8547999858856201 0.10580000281333923 0.5080999732017517
          -0.5461999773979187 -0.835099995136261 0.06530000269412994 -0.4805000126361847 -0.41920000314712524 -0.7702999711036682
          -0.1768999993801117 -0.904699981212616 -0.38760000467300415 0.14010000228881836 -0.7705000042915344 0.6219000220298767
          -0.27799999713897705 -0.8565999865531921 0.43470001220703125 0.8842999935150146 -0.4147000014781952 0.21480000019073486
          0.917900025844574 -0.012900000438094139 0.39660000801086426 -0.23399999737739563 -0.9713000059127808 0.04349999874830246
          -0.5349000096321106 -0.8294000029563904 0.16089999675750732 -0.7013000249862671 -0.7120000123977661 -0.03480000048875809
          -0.1842000037431717 -0.982200026512146 0.03779999911785126 0.9571999907493591 0.11100000143051147 0.2671999931335449
          -0.3167000114917755 -0.9462000131607056 -0.06679999828338623 0.0868000015616417 -0.9736999869346619 0.21089999377727509
          0.18649999797344208 -0.9208999872207642 0.3424000144004822 0.5171999931335449 -0.4059999883174896 0.7534999847412109
          -0.51419997215271 -0.8514000177383423 0.10369999706745148 0.968500018119812 0.18379999697208405 0.1678999960422516
          -0.6000999808311462 -0.38839998841285706 -0.6992999911308289 -0.4948999881744385 -0.09950000047683716 -0.8632000088691711
          -0.02419999986886978 -0.5902000069618225 0.8069000244140625 -0.07190000265836716 -0.8815000057220459 0.4666999876499176
          -0.3714999854564667 -0.7046999931335449 0.6043999791145325 -0.3675999939441681 -0.8812000155448914 0.2971000075340271
          -0.5758000016212463 -0.676800012588501 0.4587000012397766 -0.14429999887943268 -0.9848999977111816 0.09549999982118607
          -0.18240000307559967 -0.881600022315979 0.43540000915527344 0.9523000121116638 0.30300000309944153 -0.0364999994635582
          -0.27219998836517334 0.32690000534057617 -0.9049999713897705 0.13349999487400055 0.42820000648498535 -0.8938000202178955
          0.704200029373169 0.4284999966621399 -0.566100001335144 0.4611999988555908 0.37529999017715454 -0.8040000200271606
          0.6037999987602234 0.3912000060081482 -0.6945000290870667 -0.12600000202655792 -0.9901000261306763 0.06129999831318855
          -0.066600002348423 -0.9891999959945679 0.1307000070810318 -0.06930000334978104 -0.9721999764442444 0.22360000014305115
          -0.12470000237226486 -0.9531999826431274 0.2754000127315521 -0.11079999804496765 -0.9611999988555908 0.2524999976158142
          -0.12809999287128448 -0.9297999739646912 0.3452000021934509 -0.11339999735355377 -0.9577999711036682 0.26409998536109924
          -0.2583000063896179 -0.8418999910354614 0.47380000352859497 -0.0210999995470047 -0.7049000263214111 0.7089999914169312
          -0.3758000135421753 -0.9207000136375427 0.10520000010728836 -0.6173999905586243 -0.7544999718666077 0.22280000150203705
          -0.19099999964237213 -0.9379000067710876 0.2896000146865845 -0.5572999715805054 -0.8133000135421753 0.16699999570846558
          0.00019999999494757503 -0.9876999855041504 0.15610000491142273 -0.15000000596046448 -0.9599000215530396 0.23680000007152557
          -0.08209999650716782 -0.9593999981880188 0.27000001072883606 -0.028300000354647636 -0.9470000267028809 0.3199000060558319
          0.019700000062584877 -0.9477999806404114 0.3183000087738037 0.16259999573230743 -0.9865000247955322 0.017500000074505806
          0.349700003862381 -0.892799973487854 -0.2838999927043915 0.2475000023841858 -0.8561999797821045 -0.45350000262260437
          0.06129999831318855 -0.991599977016449 -0.11389999836683273 0.05429999902844429 -0.9980999827384949 0.028699999675154686
          -0.29089999198913574 -0.9366999864578247 0.1949000060558319 0.15410000085830688 -0.47760000824928284 0.8650000095367432
          -0.8127999901771545 -0.576200008392334 -0.08590000122785568 -0.027400000020861626 -0.9993000030517578 0.02500000037252903
          0.21570000052452087 -0.9764000177383423 0.010999999940395355 0.29580000042915344 -0.9474999904632568 0.12139999866485596
          0.4878999888896942 -0.8695999979972839 0.07540000230073929 0.9035999774932861 -0.42820000648498535 0.00930000003427267
          0.8029000163078308 -0.33230000734329224 -0.4948999881744385 0.6446999907493591 -0.37389999628067017 -0.6668000221252441
          0.6717000007629395 -0.05829999968409538 -0.7384999990463257 -0.018799999728798866 -0.01899999938905239 -0.9995999932289124
          0.12540000677108765 -0.7484999895095825 -0.6510999798774719 0.05139999836683273 -0.9785000085830688 -0.1996999979019165
          -0.13330000638961792 -0.9896000027656555 -0.05350000038743019 0.28029999136924744 -0.3901999890804291 0.8769999742507935
          -0.4311000108718872 -0.8892999887466431 -0.15240000188350677 -0.776199996471405 -0.5849999785423279 -0.2353000044822693
          -0.13950000703334808 -0.9861999750137329 -0.08950000256299973 0.673799991607666 -0.6599000096321106 0.33239999413490295
          -0.23270000517368317 -0.3736000061035156 -0.8978999853134155 -0.014800000004470348 -0.8583999872207642 -0.5127000212669373
          0.39559999108314514 -0.6129000186920166 0.6840000152587891 0.23680000007152557 -0.9714000225067139 0.01510000042617321
          0.4343000054359436 -0.8787000179290771 0.19820000231266022 0.8622999787330627 -0.17430000007152557 0.4754999876022339
          -0.16869999468326569 -0.9487000107765198 -0.26739999651908875 -0.6144000291824341 -0.6208000183105469 -0.4869000017642975
          -0.17329999804496765 -0.9763000011444092 -0.12950000166893005 -0.17350000143051147 -0.9843999743461609 -0.030500000342726707
          0.05420000106096268 -0.9980999827384949 0.029200000688433647 0.7281000018119812 -0.664900004863739 -0.16670000553131104
          0.3352000117301941 -0.9002000093460083 -0.27790001034736633 -0.6624000072479248 -0.6456000208854675 -0.3799999952316284
          0.5907999873161316 -0.2799000144004822 0.7567999958992004 -0.678600013256073 -0.6843000054359436 -0.2669000029563904
          0.4758000075817108 -0.8661999702453613 0.1526000052690506 0.8615000247955322 -0.4749000072479248 0.17980000376701355
          0.5889000296592712 -0.020899999886751175 -0.8079000115394592 0.8529999852180481 -0.11540000140666962 -0.508899986743927
          -0.34619998931884766 -0.713699996471405 -0.6089000105857849 -0.3571999967098236 -0.9276000261306763 -0.10920000076293945
          -0.7682999968528748 -0.5769000053405762 -0.27730000019073486 0.2264000028371811 -0.9596999883651733 0.1665000021457672
          -0.6172000169754028 -0.5532000064849854 0.559499979019165 -0.1696999967098236 -0.11240000277757645 -0.9790999889373779
          -0.37940001487731934 -0.9028000235557556 -0.20250000059604645 -0.37619999051094055 -0.9265999794006348 -0.0006000000284984708
          0.3158999979496002 -0.8422999978065491 0.4368000030517578 0.5615000128746033 -0.3027999997138977 0.7700999975204468
          -0.992900013923645 -0.01080000028014183 -0.11869999766349792 0.010999999940395355 -0.8870999813079834 0.46149998903274536
          -0.13249999284744263 -0.6668000221252441 0.733299970626831 0.5425999760627747 -0.7860999703407288 0.29600000381469727
          -0.8932999968528748 -0.3569999933242798 -0.27320000529289246 -0.876800000667572 -0.32710000872612 -0.35249999165534973
          -0.13950000703334808 -0.3596999943256378 0.9225999712944031 0.9161999821662903 -0.2290000021457672 0.328900009393692
          0.9581000208854675 -0.24469999969005585 -0.14880000054836273 -0.8682000041007996 -0.46549999713897705 -0.17159999907016754
          -0.8123999834060669 -0.10029999911785126 -0.574400007724762 -0.7192000150680542 -0.17479999363422394 -0.6723999977111816
          0.8896999955177307 0.20499999821186066 0.40790000557899475 -0.03880000114440918 0.05700000002980232 -0.9976000189781189
          -0.5005999803543091 0.3116999864578247 -0.807699978351593 -0.03519999980926514 0.28299999237060547 -0.9585000276565552
          0.7418000102043152 0.022099999710917473 0.6703000068664551 -0.16040000319480896 -0.8453999757766724 -0.5095000267028809
          -0.9836999773979187 -0.17599999904632568 -0.03579999879002571 -0.5831999778747559 0.17319999635219574 -0.7936999797821045
          0.32019999623298645 -0.2759999930858612 0.9063000082969666 -0.3203999996185303 0.8636000156402588 0.38920000195503235
          -0.27219998836517334 -0.9018999934196472 -0.3353999853134155 -0.40130001306533813 -0.9156000018119812 0.027000000700354576
          0.3328000009059906 -0.9208999872207642 -0.2029999941587448 -0.19339999556541443 -0.8284000158309937 0.5256999731063843
          0.717199981212616 -0.5144000053405762 0.4700999855995178 0.8623999953269958 -0.08619999885559082 0.49880000948905945
          -0.7488999962806702 -0.5543000102043152 0.36309999227523804 -0.6800000071525574 -0.7318000197410583 0.04479999840259552
          -0.12219999730587006 -0.09690000116825104 0.9878000020980835 0.2401999980211258 0.9226999878883362 0.30169999599456787
          0.2827000021934509 0.12530000507831573 0.9509999752044678 0.6330999732017517 -0.6740999817848206 -0.3804999887943268
          -0.8910999894142151 -0.42969998717308044 -0.14589999616146088 -0.8202000260353088 -0.4821999967098236 0.30799999833106995
          -0.31690001487731934 -0.7731999754905701 0.5493000149726868 -0.27489998936653137 -0.6351000070571899 0.7218999862670898
          -0.5209000110626221 -0.5353999733924866 0.664900004863739 -0.487199991941452 0.24009999632835388 -0.8396000266075134
          0.8952999711036682 0.38190001249313354 -0.22949999570846558 -0.025200000032782555 0.4129999876022339 -0.9103999733924866
          0.7846999764442444 0.4480000138282776 -0.42829999327659607 0.7301999926567078 0.4575999975204468 -0.5073999762535095
          0.2800000011920929 0.5120000243186951 -0.8120999932289124 0.5313000082969666 0.4724000096321106 -0.7032999992370605
          0.5985999703407288 0.4828999936580658 -0.63919997215271 -0.7487000226974487 -0.6622999906539917 -0.030300000682473183
          -0.26499998569488525 -0.9344000220298767 0.2379000037908554 -0.6301000118255615 -0.7305999994277954 0.2630999982357025
          -0.23440000414848328 -0.911899983882904 0.336899995803833 -0.04340000078082085 -0.9117000102996826 0.40860000252723694
          0.08709999918937683 -0.6872000098228455 0.7211999893188477 0.019899999722838402 -0.6952999830245972 0.718500018119812
          -0.25290000438690186 -0.9553999900817871 -0.15240000188350677 -0.0617000013589859 -0.9980999827384949 -0.0010000000474974513
          0.06849999725818634 -0.9922999739646912 0.10360000282526016 0.12060000002384186 -0.8382999897003174 0.5317000150680542
          0.05249999836087227 -0.5630999803543091 0.8246999979019165 -0.7505999803543091 -0.516700029373169 -0.41179999709129333
          0.08229999989271164 -0.9840999841690063 0.15729999542236328 0.12849999964237213 -0.9915000200271606 -0.01889999955892563
          -0.1193000003695488 -0.6514999866485596 0.7491999864578247 -0.0006000000284984708 -0.8971999883651733 0.4417000114917755
          -0.01810000091791153 -0.8518000245094299 0.5235999822616577 -0.1679999977350235 -0.6128000020980835 0.7720999717712402
          -0.6480000019073486 -0.6789000034332275 -0.34540000557899475 0.030700000002980232 -0.9724000096321106 0.23109999299049377
          0.04529999941587448 -0.6732000112533569 0.738099992275238 -0.25769999623298645 -0.9628999829292297 -0.08030000329017639
          0.07010000199079514 -0.9973000288009644 0.0210999995470047 -0.09780000150203705 -0.805899977684021 0.583899974822998
          0.1005999967455864 -0.5401999950408936 0.8355000019073486 -0.8331999778747559 -0.5309000015258789 -0.15489999949932098
          -0.13989999890327454 -0.9733999967575073 0.18160000443458557 -0.08479999750852585 -0.9933000206947327 0.0778999999165535
          -0.9068999886512756 -0.421099990606308 -0.01549999974668026 0.713100016117096 0.34950000047683716 -0.607699990272522
          0.2874000072479248 -0.06840000301599503 -0.955299973487854 -0.05339999869465828 0.3336000144481659 -0.9412000179290771
          0.9675999879837036 0.2084999978542328 0.1421000063419342 0.7843999862670898 0.42660000920295715 -0.450300008058548
          -0.9280999898910522 -0.24940000474452972 -0.27639999985694885 0.906499981880188 -0.061000000685453415 0.41769999265670776
          -0.47040000557899475 0.02810000069439411 -0.8820000290870667 0.909500002861023 0.19349999725818634 0.3677999973297119
          -0.8658999800682068 -0.43560001254081726 -0.2459000051021576 0.9212999939918518 0.3312999904155731 -0.20340000092983246
          0.817300021648407 0.5564000010490417 -0.14949999749660492 -0.6912999749183655 -0.3061000108718872 -0.6546000242233276
          -0.8988000154495239 -0.17139999568462372 -0.4034000039100647 0.9031999707221985 0.014299999922513962 0.42890000343322754
          0.9872999787330627 0.11739999800920486 0.10660000145435333 -0.4244999885559082 -0.17599999904632568 -0.8881999850273132
          -0.6097000241279602 -0.2720000147819519 0.7444000244140625 -0.9796000123023987 -0.11739999800920486 0.163100004196167
          -0.08959999680519104 -0.6492000222206116 0.755299985408783 0.6995000243186951 -0.1688999980688095 0.6944000124931335
          0.8557999730110168 -0.4212000072002411 0.3003999888896942 -0.6861000061035156 -0.6107000112533569 0.3955000042915344
          -0.8616999983787537 -0.38339999318122864 -0.33239999413490295 -0.7034000158309937 -0.36500000953674316 0.6098999977111816
          -0.005400000140070915 0.3598000109195709 -0.9330000281333923 -0.9678999781608582 0.05640000104904175 -0.24500000476837158
          0.8062000274658203 -0.08009999990463257 0.5861999988555908 -0.10400000214576721 0.8162000179290771 0.5683000087738037
          0.5864999890327454 0.225600004196167 0.777899980545044 0.2759000062942505 0.46869999170303345 -0.8392000198364258
          0.7486000061035156 0.6162999868392944 -0.24459999799728394 0.8801000118255615 -0.14190000295639038 -0.4530999958515167
          -0.6062999963760376 -0.38999998569488525 -0.6930999755859375 0.77920001745224 0.4311999976634979 0.45489999651908875
          -0.2874000072479248 0.1242000013589859 -0.9496999979019165 -0.5321999788284302 -0.7985000014305115 0.2815000116825104
          -0.8277999758720398 -0.48500001430511475 0.28189998865127563 -0.8439000248908997 -0.219200000166893 -0.48969998955726624
          -0.15440000593662262 -0.7167999744415283 0.6798999905586243 -0.32829999923706055 -0.3027999997138977 0.8946999907493591
          -0.3880000114440918 -0.5199999809265137 0.7609000205993652 -0.4291999936103821 0.18170000612735748 -0.8847000002861023
          -0.8967999815940857 0.10939999669790268 -0.428600013256073 0.8952999711036682 0.019899999722838402 0.44510000944137573
          0.5217999815940857 -0.14100000262260437 0.8413000106811523 -0.22920000553131104 0.14509999752044678 -0.9624999761581421
          0.32910001277923584 -0.9401999711990356 -0.0877000018954277 -0.2734000086784363 -0.7213000059127808 0.6363999843597412
          -0.12449999898672104 -0.8669999837875366 0.48249998688697815 0.4471000134944916 -0.8888000249862671 0.10109999775886536
          -0.2551000118255615 -0.4345000088214874 0.8637999892234802 -0.04600000008940697 -0.9929999709129333 0.10869999974966049
          -0.6290000081062317 -0.5135999917984009 0.5835999846458435 -0.8587999939918518 -0.30000001192092896 0.41530001163482666
          0.9453999996185303 0.125 0.3009999990463257 0.20430000126361847 -0.27790001034736633 0.9386000037193298
          -0.15600000321865082 -0.18860000371932983 -0.9696000218391418 0.9562000036239624 0.18690000474452972 0.22519999742507935
          0.8891000151634216 0.2685000002384186 -0.37070000171661377 0.42590001225471497 -0.3840000033378601 -0.8191999793052673
          -0.42329999804496765 -0.4185999929904938 -0.8034999966621399 -0.10109999775886536 -0.3450999855995178 0.9330999851226807
          0.031099999323487282 -0.9767000079154968 0.21250000596046448 -0.796500027179718 -0.44670000672340393 -0.4074000120162964
          0.7946000099182129 -0.3028999865055084 0.526199996471405 0.9271000027656555 0.006800000090152025 -0.37470000982284546
          -0.8575999736785889 -0.42899999022483826 -0.28380000591278076 -0.5976999998092651 -0.5593000054359436 0.574400007724762
          -0.037700001150369644 -0.5533000230789185 0.832099974155426 0.958299994468689 0.28459998965263367 -0.026599999517202377
          0.9086999893188477 0.3808000087738037 -0.17110000550746918 0.8252999782562256 0.4320000112056732 -0.3637000024318695
          0.13590000569820404 0.47040000557899475 -0.8719000220298767 -0.21780000627040863 -0.8891000151634216 0.4025000035762787
          -0.579800009727478 -0.5680999755859375 0.5841000080108643 -0.6496000289916992 -0.7095999717712402 0.2728999853134155
          -0.12240000069141388 -0.727400004863739 0.6751999855041504 -0.4205999970436096 -0.8755999803543091 0.23739999532699585
          -0.8317999839782715 -0.5544999837875366 0.02500000037252903 0.13809999823570251 -0.5770000219345093 0.8050000071525574
          -0.06629999727010727 -0.8478999733924866 0.5259000062942505 0.16429999470710754 -0.4131999909877777 0.8956999778747559
          -0.9552000164985657 -0.25920000672340393 -0.14249999821186066 -0.9168999791145325 -0.1429000049829483 -0.3727000057697296
          -0.08449999988079071 -0.40790000557899475 0.9090999960899353 -0.23909999430179596 -0.436599999666214 0.8672999739646912
          -0.8859000205993652 -0.20730000734329224 -0.41499999165534973 -0.10209999978542328 -0.43470001220703125 0.8948000073432922
          0.43320000171661377 0.7271000146865845 -0.5325999855995178 0.8090999722480774 0.5189999938011169 0.27549999952316284
          0.23669999837875366 -0.3634999990463257 0.9010000228881836 -0.9593999981880188 -0.21879999339580536 -0.17790000140666962
          0.17820000648498535 0.9611999988555908 0.21060000360012054 0.609000027179718 0.2782000005245209 0.7427999973297119
          -0.3343999981880188 0.6331999897956848 -0.6980000138282776 -0.2867000102996826 0.36629998683929443 -0.885200023651123
          0.7056000232696533 0.5031999945640564 -0.49900001287460327 0.876800000667572 0.32420000433921814 -0.35519999265670776
          0.19359999895095825 0.4629000127315521 -0.8650000095367432 0.5579000115394592 0.48570001125335693 0.6729000210762024
          0.10779999941587448 0.9365000128746033 -0.33379998803138733 -0.27309998869895935 0.2485000044107437 -0.9293000102043152
          0.9593999981880188 0.12280000001192093 -0.25380000472068787 0.3425000011920929 -0.3264000117778778 0.8809999823570251
          0.781499981880188 0.2206999957561493 0.5835000276565552 0.49889999628067017 0.22599999606609344 -0.8366000056266785
          0.4578000009059906 -0.2928999960422516 0.8393999934196472 -0.9388999938964844 -0.13779999315738678 -0.3154999911785126
          -0.7333999872207642 -0.19939999282360077 -0.6499000191688538 0.9520999789237976 0.30000001192092896 0.05920000001788139
          -0.2939999997615814 -0.9514999985694885 -0.09099999815225601 -0.8574000000953674 -0.5131999850273132 0.03840000182390213
          0.9782000184059143 0.13230000436306 -0.16019999980926514 -0.7174999713897705 -0.5027999877929688 -0.4821000099182129
          0.6432999968528748 -0.18870000541210175 0.7419999837875366 0.9182000160217285 0.1639000028371811 0.36070001125335693
          -0.1932000070810318 0.2892000079154968 -0.9376000165939331 -0.8776000142097473 -0.013700000010430813 -0.47920000553131104
          -0.6410999894142151 0.17229999601840973 0.7479000091552734 -0.992900013923645 0.09070000052452087 0.07720000296831131
          0.16220000386238098 -0.09709999710321426 0.9819999933242798 -0.24210000038146973 0.31470000743865967 -0.9178000092506409
          0.7936999797821045 0.06759999692440033 0.6044999957084656 -0.5978999733924866 0.4609000086784363 -0.6557999849319458
          0.5162000060081482 -0.5716000199317932 0.6377999782562256 -0.8651000261306763 0.0034000000450760126 0.5016000270843506
          -0.7028999924659729 -0.15150000154972076 0.6948999762535095 0.19020000100135803 0.39410001039505005 -0.8992000222206116
          -0.9843000173568726 -0.1543000042438507 -0.08619999885559082 0.8084999918937683 -0.09730000048875809 0.5803999900817871
          -0.8033000230789185 0.07419999688863754 -0.5910000205039978 0.7444999814033508 0.03460000082850456 0.666700005531311
          0.23409999907016754 0.37290000915527344 -0.8978000283241272 -0.6011999845504761 0.15160000324249268 -0.784500002861023
          -0.03689999878406525 0.2410999983549118 -0.9697999954223633 0.28200000524520874 0.3138999938964844 -0.9065999984741211
          0.12430000305175781 0.31929999589920044 -0.9394999742507935 -0.11410000175237656 -0.506600022315979 0.8546000123023987
          0.7419999837875366 0.10040000081062317 0.6628999710083008 -0.49470001459121704 -0.39820000529289246 0.7724999785423279
          -0.9678999781608582 0.11140000075101852 0.22550000250339508 0.32589998841285706 0.2498999983072281 0.9118000268936157
          -0.0560000017285347 0.3939000070095062 -0.9174000024795532 -0.28380000591278076 0.836899995803833 0.46799999475479126
          -0.39959999918937683 0.07909999787807465 0.9132999777793884 -0.6499000191688538 -0.2475000023841858 0.718500018119812