<?xml version="1.0"?>
<VTKFile type="PolyData" version="0.1" byte_order="LittleEndian" header_type="UInt32" compressor="vtkZLibDataCompressor">
  <PolyData>
    <FieldData>
      <Array type="String" Name="MaterialNames" NumberOfTuples="1" format="ascii">
        109 97 116 101 114 105 97 108 95 48 0
      </Array>
      <Array type="String" Name="MaterialLibraries" NumberOfTuples="1" format="ascii">
        109 97 116 101 114 105 97 108 46 109 116 108 0
      </Array>
    </FieldData>
    <Piece NumberOfPoints="20337" NumberOfVerts="0" NumberOfLines="0" NumberOfStrips="0" NumberOfPolys="40875">
      <PointData Normals="Normals">
        <DataArray type="Float32" Name="Normals" NumberOfComponents="3" format="ascii" RangeMin="0.9999152947796035" RangeMax="1.0000781831080228">
          -0.07479999959468842 -0.795799970626831 -0.6008999943733215 -0.00009999999747378752 -0.35019999742507935 -0.9366999864578247
          0.02930000051856041 -0.5623999834060669 -0.8263000249862671 -0.1607999950647354 -0.8367000222206116 -0.5235000252723694
          -0.164000004529953 -0.4332999885082245 -0.8862000107765198 -0.2937999963760376 -0.8151999711990356 -0.499099999666214
          -0.3619999885559082 -0.4255000054836273 -0.8294000029563904 -0.5180000066757202 -0.5099999904632568 -0.6868000030517578
          -0.542900025844574 -0.412200003862381 -0.7317000031471252 0.01889999955892563 -0.7595000267028809 -0.6502000093460083
          0.13439999520778656 -0.30959999561309814 -0.9412999749183655 0.13750000298023224 -0.49219998717308044 -0.8596000075340271
          -0.027499999850988388 -0.8535000085830688 -0.5203999876976013 0.025800000876188278 -0.4677000045776367 -0.8834999799728394
          -0.0502999983727932 -0.8834999799728394 -0.4657000005245209 -0.09000000357627869 -0.9487000107765198 -0.30309998989105225
          -0.11129999905824661 -0.9538000226020813 -0.2791999876499176 -0.1525000035762787 -0.9506999850273132 -0.2700999975204468
          -0.2522999942302704 -0.900600016117096 -0.3538999855518341 -0.5049999952316284 -0.3910999894142151 -0.7694000005722046
          -0.3192000091075897 -0.8270000219345093 -0.4629000127315521 -0.3939000070095062 -0.7968000173568726 -0.45820000767707825
          -0.5368000268936157 -0.42239999771118164 -0.730400025844574 -0.6348000168800354 -0.3937999904155731 -0.6647999882698059
          0.07460000365972519 -0.840399980545044 -0.5368000268936157 0.21899999678134918 -0.38499999046325684 -0.8964999914169312
          0.3018999993801117 -0.5177000164985657 -0.8004999756813049 -0.029999999329447746 -0.939300000667572 -0.3418000042438507
          -0.05400000140070915 -0.9616000056266785 -0.26919999718666077 -0.07729999721050262 -0.9743000268936157 -0.21170000731945038
          -0.09809999912977219 -0.9904999732971191 -0.09669999778270721 -0.07670000195503235 -0.9965000152587891 -0.03310000151395798
          -0.05609999969601631 -0.9973000288009644 -0.047600001096725464 -0.08460000157356262 -0.9897000193595886 -0.11569999903440475
          -0.15299999713897705 -0.9682999849319458 -0.1972000002861023 -0.26669999957084656 -0.9330000281333923 -0.24160000681877136
          -0.6687999963760376 -0.607699990272522 -0.4284000098705292 -0.5077999830245972 -0.821399986743927 -0.2596000134944916
          -0.8586000204086304 -0.3578000068664551 -0.36719998717308044 0.18080000579357147 -0.6265000104904175 -0.7581999897956848
          0.10050000250339508 -0.8980000019073486 -0.42829999327659607 -0.028200000524520874 -0.9715999960899353 -0.23479999601840973
          -0.06120000034570694 -0.9850999712944031 -0.16099999845027924 -0.10689999908208847 -0.9922999739646912 -0.0632999986410141
          -0.11659999936819077 -0.9919000267982483 0.050599999725818634 -0.08460000157356262 -0.9521999955177307 0.29339998960494995
          0.09709999710321426 -0.9599000215530396 0.2628999948501587 0.07360000163316727 -0.9934999942779541 0.08630000054836273
          -0.004900000058114529 -0.9991999864578247 -0.04089999943971634 -0.1454000025987625 -0.9822999835014343 -0.11810000240802765
          -0.34389999508857727 -0.9269000291824341 -0.15049999952316284 -0.8004000186920166 -0.5246000289916992 -0.29019999504089355
          -0.5982000231742859 -0.7882999777793884 -0.14409999549388885 -0.9143000245094299 -0.3806000053882599 -0.1387999951839447
          0.13199999928474426 -0.8256999850273132 -0.5485000014305115 0.36500000953674316 -0.3260999917984009 -0.871999979019165
          0.39399999380111694 -0.49720001220703125 -0.7730000019073486 0.19220000505447388 -0.4546999931335449 -0.869700014591217
          0.0006000000284984708 -0.9248999953269958 -0.38019999861717224 -0.01860000006854534 -0.9638000130653381 -0.2660999894142151
          -0.08229999989271164 -0.9932000041007996 -0.08219999819993973 -0.10620000213384628 -0.9923999905586243 0.06260000169277191
          -0.1151999980211258 -0.9853000044822693 0.12620000541210175 -0.17800000309944153 -0.9309999942779541 0.31859999895095825
          -0.17260000109672546 -0.8489999771118164 0.49950000643730164 -0.20000000298023224 -0.6025000214576721 0.772599995136261
          0.04820000007748604 -0.5024999976158142 0.8632000088691711 0.42080000042915344 -0.5302000045776367 0.7361000180244446
          0.548799991607666 -0.44290000200271606 0.7089999914169312 0.3752000033855438 -0.8432000279426575 0.38499999046325684
          0.19779999554157257 -0.9775999784469604 0.07150000333786011 -0.010900000110268593 -0.9983999729156494 -0.05510000139474869
          -0.2475000023841858 -0.9642000198364258 -0.0949999988079071 -0.5227000117301941 -0.8485000133514404 -0.08240000158548355
          -0.9017999768257141 -0.4320000112056732 0.01119999960064888 0.2718000113964081 -0.8234999775886536 -0.49799999594688416
          0.5601000189781189 -0.3409999907016754 -0.7549999952316284 0.5386000275611877 -0.5202000141143799 -0.6628000140190125
          0.05260000005364418 -0.95169997215271 -0.3025999963283539 -0.041200000792741776 -0.9764999747276306 -0.21140000224113464
          -0.11829999834299088 -0.9896000027656555 -0.08229999989271164 -0.16899999976158142 -0.9851999878883362 0.02850000001490116
          -0.24089999496936798 -0.9240000247955322 0.296999990940094 -0.14110000431537628 -0.8687999844551086 0.4745999872684479
          -0.1729000061750412 -0.6172000169754028 0.7675999999046326 -0.2020999938249588 -0.4519999921321869 0.8687999844551086
          -0.24420000612735748 -0.34040001034736633 0.9079999923706055 0.7924000024795532 -0.19789999723434448 0.5770000219345093
          0.8901000022888184 -0.2768999934196472 0.3619999885559082 0.582099974155426 -0.7930999994277954 0.17919999361038208
          0.155799999833107 -0.9872999787330627 -0.029400000348687172 -0.15330000221729279 -0.9861999750137329 -0.06210000067949295
          -0.44909998774528503 -0.8928999900817871 -0.03290000185370445 -0.8483999967575073 -0.5248000025749207 0.0689999982714653
          0.14380000531673431 -0.9193999767303467 -0.366100013256073 -0.0010999999940395355 -0.9782000184059143 -0.20749999582767487
          -0.10700000077486038 -0.9916999936103821 -0.07159999758005142 -0.1808999925851822 -0.9829999804496765 0.031199999153614044
          -0.2957000136375427 -0.9075000286102295 0.29820001125335693 -0.4523000121116638 -0.5605999827384949 0.6937000155448914
          -0.35989999771118164 -0.47589999437332153 0.8025000095367432 -0.21979999542236328 -0.32820001244544983 0.9186999797821045
          0.8256000280380249 -0.5325000286102295 0.18639999628067017 0.9046000242233276 -0.4212000072002411 0.06560000032186508
          0.423799991607666 -0.9057999849319458 -0.006300000008195639 -0.0284000001847744 -0.9977999925613403 -0.060499999672174454
          -0.4262999892234802 -0.9045000076293945 0.007300000172108412 -0.8281000256538391 -0.5526000261306763 0.09449999779462814
          0.3278000056743622 -0.8561999797821045 -0.399399995803833 0.5999000072479248 -0.45419999957084656 -0.6585999727249146
          0.6712999939918518 -0.4072999954223633 -0.6193000078201294 0.050599999725818634 -0.9782999753952026 -0.20090000331401825
          -0.09539999812841415 -0.9909999966621399 -0.09440000355243683 -0.17159999907016754 -0.9850000143051147 0.018699999898672104
          -0.34389999508857727 -0.8934000134468079 0.2888999879360199 -0.5512999892234802 -0.4544000029563904 0.6996999979019165
          0.46720001101493835 -0.8776999711990356 -0.10610000044107437 0.9379000067710876 -0.3411000072956085 -0.06260000169277191
          -0.8730999827384949 -0.47369998693466187 0.11550000309944153 0.2087000012397766 -0.9262999892234802 -0.31380000710487366
          0.5702000260353088 -0.5461999773979187 -0.6136000156402588 0.015699999406933784 -0.9973999857902527 -0.07069999724626541
          -0.13169999420642853 -0.9901000261306763 0.04919999837875366 -0.28049999475479126 -0.913100004196167 0.29600000381469727
          -0.48420000076293945 -0.597100019454956 0.6395000219345093 0.5916000008583069 -0.8036999702453613 -0.06480000168085098
          0.9708999991416931 -0.23829999566078186 -0.021700000390410423 0.07519999891519547 -0.9962000250816345 -0.04349999874830246
          -0.24410000443458557 -0.9603000283241272 0.13529999554157257 -0.7584999799728394 -0.6370000243186951 0.13750000298023224
          0.460999995470047 -0.8546000123023987 -0.23899999260902405 0.722599983215332 -0.32330000400543213 -0.6110000014305115
          0.7555999755859375 -0.6208000183105469 -0.20900000631809235 0.15710000693798065 -0.9810000061988831 0.11389999836683273
          -0.016499999910593033 -0.9768999814987183 0.21330000460147858 -0.20520000159740448 -0.9067999720573425 0.3684000074863434
          -0.4779999852180481 -0.532800018787384 0.6983000040054321 0.8490999937057495 -0.5156000256538391 0.11509999632835388
          0.7908999919891357 -0.5892999768257141 0.1647000014781952 0.2615000009536743 -0.9427000284194946 0.20720000565052032
          -0.6859999895095825 -0.6736000180244446 0.2750000059604645 0.3682999908924103 -0.8999000191688538 0.2337000072002411
          0.07750000059604645 -0.916700005531311 0.3921000063419342 -0.06459999829530716 -0.8575000166893005 0.5102999806404114
          -0.29820001125335693 -0.7221999764442444 0.6241000294685364 0.1664000004529953 -0.9222999811172485 0.34869998693466187
          -0.2547999918460846 -0.8867999911308289 0.385699987411499 0.03009999915957451 -0.023399999365210533 -0.9993000030517578
          0.09109999984502792 -0.1289999932050705 -0.987500011920929 -0.1379999965429306 -0.011599999852478504 -0.9904000163078308
          -0.36239999532699585 -0.028200000524520874 -0.9315999746322632 -0.5404999852180481 -0.03889999911189079 -0.840399980545044
          -0.564300000667572 -0.06430000066757202 -0.8230999708175659 0.17409999668598175 -0.013199999928474426 -0.9846000075340271
          0.20239999890327454 -0.06840000301599503 -0.9768999814987183 0.08609999716281891 -0.07729999721050262 -0.9933000206947327
          0.08049999922513962 -0.03869999945163727 -0.9959999918937683 -0.6115999817848206 -0.05889999866485596 -0.7889999747276306
          -0.824999988079071 -0.1597999930381775 -0.5419999957084656 -0.713699996471405 -0.0471000000834465 -0.6988000273704529
          -0.8528000116348267 -0.03290000185370445 -0.5213000178337097 0.4415000081062317 -0.17749999463558197 -0.8794999718666077
          0.3686000108718872 -0.06729999929666519 -0.9271000027656555 0.26409998536109924 -0.028999999165534973 -0.9641000032424927
          -0.9169999957084656 -0.06509999930858612 -0.3935000002384186 0.39089998602867126 -0.11900000274181366 -0.9126999974250793
          0.3278999924659729 -0.09200000017881393 -0.9401999711990356 -0.9532999992370605 -0.1120000034570694 -0.28049999475479126
          -0.9976000189781189 -0.04690000042319298 -0.05119999870657921 0.42899999022483826 0.0020000000949949026 -0.9032999873161316
          0.5185999870300293 -0.038600001484155655 -0.8540999889373779 -0.19619999825954437 -0.10689999908208847 0.9746999740600586
          -0.16019999980926514 -0.016699999570846558 0.9868999719619751 0.10909999907016754 -0.0272000003606081 0.9937000274658203
          0.3725999891757965 -0.017100000753998756 0.9277999997138977 0.6207000017166138 -0.023800000548362732 0.7836999893188477
          -0.9876000285148621 -0.07779999822378159 0.13670000433921814 0.60589998960495 -0.005900000222027302 -0.7954999804496765
          0.675000011920929 -0.06989999860525131 -0.734499990940094 -0.16660000383853912 -0.0689999982714653 0.9836000204086304
          -0.21480000019073486 0.016100000590085983 0.9764999747276306 -0.11389999836683273 -0.008700000122189522 0.9934999942779541
          -0.16760000586509705 -0.02199999988079071 0.9855999946594238 0.9077000021934509 0.013799999840557575 0.41929998993873596
          0.9592999815940857 -0.0681999996304512 0.27410000562667847 0.7911999821662903 0.021199999377131462 0.6111999750137329
          0.9768999814987183 -0.004000000189989805 0.2134999930858612 0.7125999927520752 -0.05299999937415123 -0.6995999813079834
          -0.5209000110626221 -0.08990000188350677 0.848800003528595 -0.38690000772476196 -0.007000000216066837 0.9221000075340271
          0.9976999759674072 0.007899999618530273 0.06750000268220901 -0.5669000148773193 -0.05050000175833702 0.8222000002861023
          0.9968000054359436 0.0763000026345253 -0.022299999371170998 -0.9693999886512756 -0.1964000016450882 0.14710000157356262
          0.7694000005722046 -0.05900000035762787 -0.6360999941825867 -0.5321000218391418 -0.1599999964237213 0.8314999938011169
          -0.5687999725341797 -0.09910000115633011 0.8165000081062317 0.9995999932289124 -0.017999999225139618 -0.019600000232458115
          0.7671999931335449 -0.002300000051036477 -0.6413999795913696 0.8465999960899353 -0.08649999648332596 -0.5252000093460083
          -0.6471999883651733 -0.1445000022649765 0.7484999895095825 -0.5493999719619751 -0.13089999556541443 0.8252000212669373
          0.9829000234603882 -0.1501999944448471 -0.1062999963760376 -0.7343000173568726 -0.6011000275611877 0.31540000438690186
          -0.9569000005722046 -0.26440000534057617 0.11999999731779099 -0.9919000267982483 -0.11050000041723251 0.061900001019239426
          0.5072000026702881 -0.854200005531311 0.1143999993801117 0.8704000115394592 -0.41040000319480896 -0.2718000113964081
          0.03480000048875809 -0.9912999868392944 0.12720000743865967 -0.13619999587535858 -0.9241999983787537 0.35670000314712524
          -0.4505000114440918 -0.7494999766349792 0.48500001430511475 -0.6518999934196472 -0.3555999994277954 0.669700026512146
          0.302700012922287 -0.9427000284194946 0.1404999941587448 0.8510000109672546 -0.5188999772071838 -0.08089999854564667
          -0.27959999442100525 -0.9366000294685364 0.2110999971628189 -0.836899995803833 -0.5389999747276306 0.09560000151395798
          0.3610999882221222 -0.9211000204086304 -0.14560000598430634 0.7903000116348267 -0.5325999855995178 -0.30309998989105225
          -0.4345000088214874 -0.8978000283241272 0.07180000096559525 -0.8076000213623047 -0.5134999752044678 0.29010000824928284
          -0.7671999931335449 -0.3919999897480011 0.5076000094413757 0.2973000109195709 -0.9480000138282776 -0.1136000007390976
          0.7962999939918518 -0.5586000084877014 -0.23199999332427979 -0.15870000422000885 -0.9854999780654907 -0.05959999933838844
          -0.5616999864578247 -0.8252999782562256 -0.058800000697374344 -0.8999000191688538 -0.4361000061035156 0.0035000001080334187
          0.3330000042915344 -0.925000011920929 -0.18299999833106995 0.7894999980926514 -0.5577999949455261 -0.25600001215934753
          -0.0010000000474974513 -0.9940999746322632 -0.10869999974966049 -0.31630000472068787 -0.9451000094413757 -0.08240000158548355
          -0.8654000163078308 -0.5001999735832214 -0.031599998474121094 -0.6787999868392944 -0.7269999980926514 -0.10360000282526016
          -0.9323999881744385 -0.3449999988079071 -0.1080000028014183 0.3208000063896179 -0.9358000159263611 -0.14630000293254852
          0.8223999738693237 -0.5360000133514404 -0.19030000269412994 -0.08129999786615372 -0.9905999898910522 -0.11020000278949738
          -0.4699999988079071 -0.8733999729156494 -0.12729999423027039 -0.8616999983787537 -0.49729999899864197 -0.10100000351667404
          0.3709999918937683 -0.9168999791145325 -0.14730000495910645 0.8411999940872192 -0.5203999876976013 -0.14659999310970306
          0.04360000044107437 -0.991100013256073 -0.125900000333786 -0.22579999268054962 -0.9656000137329102 -0.12880000472068787
          -0.5647000074386597 -0.8057000041007996 -0.17900000512599945 -0.8881999850273132 -0.4237000048160553 -0.1777999997138977
          0.4020000100135803 -0.9085999727249146 -0.11320000141859055 0.8967000246047974 -0.4318999946117401 -0.09730000048875809
          0.023800000548362732 -0.9954000115394592 -0.09300000220537186 -0.29260000586509705 -0.9516000151634216 -0.09440000355243683
          -0.8212000131607056 -0.5346999764442444 -0.19939999282360077 -0.6161999702453613 -0.781499981880188 -0.09730000048875809
          -0.9215999841690063 -0.376800000667572 -0.093299999833107 0.5099999904632568 -0.8592000007629395 -0.040699999779462814
          0.929099977016449 -0.3637000024318695 0.06710000336170197 0.131400004029274 -0.9872999787330627 -0.0892999991774559
          -0.11640000343322754 -0.9857000112533569 -0.12210000306367874 -0.35420000553131104 -0.9156000018119812 -0.19020000100135803
          -0.8608999848365784 -0.3871999979019165 -0.33000001311302185 -0.6585000157356262 -0.656499981880188 -0.36800000071525574
          -0.8323000073432922 -0.28610000014305115 -0.474700003862381 0.6840999722480774 -0.6884999871253967 -0.2409999966621399
          0.16429999470710754 -0.982699990272522 -0.0851999968290329 -0.19470000267028809 -0.9793999791145325 -0.052799999713897705
          -0.5257999897003174 -0.850600004196167 -0.008200000040233135 -0.8921999931335449 -0.4472000002861023 0.06319999694824219
          0.8073999881744385 -0.5756999850273132 0.12939999997615814 0.29739999771118164 -0.9546999931335449 -0.0071000000461936
          0.01269999984651804 -0.9972000122070312 -0.07349999994039536 -0.17910000681877136 -0.9725000262260437 -0.1485999971628189
          -0.36880001425743103 -0.8889999985694885 -0.27149999141693115 -0.785099983215332 -0.31470000743865967 -0.5335000157356262
          -0.5781999826431274 -0.6797000169754028 -0.4512999951839447 -0.7372000217437744 -0.23309999704360962 -0.6341999769210815
          0.6845999956130981 -0.5954999923706055 -0.4203000068664551 0.2667999863624573 -0.9236000180244446 -0.2752000093460083
          0.08219999819993973 -0.9840999841690063 -0.15729999542236328 -0.5108000040054321 -0.8567000031471252 0.07159999758005142
          -0.8600000143051147 -0.47360000014305115 0.18970000743865967 0.5152999758720398 -0.8503000140190125 0.10729999840259552
          0.9093000292778015 -0.3384999930858612 0.2418999969959259 0.1720999926328659 -0.9847999811172485 0.02160000056028366
          -0.02669999934732914 -0.9976999759674072 -0.06260000169277191 -0.16920000314712524 -0.9740999937057495 -0.15029999613761902
          -0.299699991941452 -0.9144999980926514 -0.2718999981880188 -0.6452000141143799 -0.35019999742507935 -0.6790000200271606
          -0.41029998660087585 -0.7921000123023987 -0.45190000534057617 -0.45170000195503235 -0.6826000213623047 -0.5745000243186951
          -0.5503000020980835 -0.42250001430511475 -0.7202000021934509 -0.5690000057220459 -0.29679998755455017 -0.7669000029563904
          0.186599999666214 -0.9293000102043152 -0.31869998574256897 0.579200029373169 -0.550599992275238 -0.6011000275611877
          0.006099999882280827 -0.9871000051498413 -0.16030000150203705 -0.23639999330043793 -0.9711999893188477 -0.030500000342726707
          -0.4900999963283539 -0.8605999946594238 0.13840000331401825 -0.8108000159263611 -0.48330000042915344 0.33009999990463257
          0.7889000177383423 -0.5249999761581421 0.3192000091075897 0.8299999833106995 -0.3330000042915344 0.44749999046325684
          0.44510000944137573 -0.8723000288009644 0.20260000228881836 0.1420000046491623 -0.9865999817848206 0.08030000329017639
          -0.01119999960064888 -0.9998999834060669 0.007799999788403511 -0.1080000028014183 -0.9921000003814697 -0.06419999897480011
          -0.1850000023841858 -0.9696000218391418 -0.16019999980926514 -0.25029999017715454 -0.9358000159263611 -0.2483000010251999
          -0.4133000075817108 -0.5964000225067139 -0.6880999803543091 -0.37700000405311584 -0.8693000078201294 -0.3197000026702881
          -0.2249000072479248 -0.8145999908447266 -0.534600019454956 -0.35199999809265137 -0.3725999891757965 -0.8586000204086304
          -0.21400000154972076 -0.7706999778747559 -0.6001999974250793 -0.3037000000476837 -0.3610000014305115 -0.8816999793052673
          -0.17180000245571136 -0.8219000101089478 -0.5430999994277954 -0.20250000059604645 -0.36629998683929443 -0.9082000255584717
          -0.19189999997615814 -0.8508999943733215 -0.48899999260902405 -0.22269999980926514 -0.4244000017642975 -0.8776999711990356
          -0.10000000149011612 -0.8655999898910522 -0.49059998989105225 -0.147599995136261 -0.47540000081062317 -0.8672999739646912
          0.07909999787807465 -0.9194999933242798 -0.38499999046325684 0.25940001010894775 -0.48069998621940613 -0.8377000093460083
          0.04830000177025795 -0.9836999773979187 -0.17319999635219574 -0.06270000338554382 -0.9955999851226807 -0.06949999928474426
          -0.2614000141620636 -0.9641000032424927 0.04560000076889992 -0.5480999946594238 -0.7942000031471252 0.2624000012874603
          -0.7876999974250793 -0.4677000045776367 0.4009999930858612 0.7260000109672546 -0.5008000135421753 0.47130000591278076
          0.7009000182151794 -0.30410000681877136 0.6452000141143799 0.3955000042915344 -0.829200029373169 0.39500001072883606
          0.1867000013589859 -0.9273999929428101 0.32420000433921814 0.07100000232458115 -0.9495000243186951 0.30559998750686646
          0.02459999918937683 -0.964900016784668 0.26159998774528503 -0.05180000141263008 -0.977400004863739 0.20509999990463257
          -0.1265999972820282 -0.9883000254631042 0.08550000190734863 -0.06300000101327896 -0.996999979019165 -0.04560000076889992
          -0.05530000105500221 -0.9984999895095825 -0.0017000000225380063 -0.0649000033736229 -0.9973999857902527 0.031700000166893005
          -0.058800000697374344 -0.9976999759674072 0.033399999141693115 -0.004000000189989805 -0.9984999895095825 0.05469999834895134
          0.05620000138878822 -0.9876999855041504 0.1459999978542328 -0.04619999974966049 -0.9661999940872192 0.2535000145435333
          -0.25459998846054077 -0.9110000133514404 0.3246000111103058 -0.5735999941825867 -0.5616999864578247 0.5961999893188477
          -0.7731000185012817 -0.37959998846054077 0.5080999732017517 0.48410001397132874 -0.558899998664856 0.6732000112533569
          0.2915000021457672 -0.694599986076355 0.6577000021934509 0.24379999935626984 -0.7364000082015991 0.6310999989509583
          0.15440000593662262 -0.8163999915122986 0.5565000176429749 0.0731000006198883 -0.8623999953269958 0.5008999705314636
          0.09449999779462814 -0.9110999703407288 0.40119999647140503 0.048700001090765 -0.9447000026702881 0.32420000433921814
          0.060100000351667404 -0.9312000274658203 0.3596000075340271 0.039500001817941666 -0.934499979019165 0.3537999987602234
          0.009999999776482582 -0.945900022983551 0.32420000433921814 0.026399999856948853 -0.927299976348877 0.3734999895095825
          0.009600000455975533 -0.9120000004768372 0.4101000130176544 0.042399998754262924 -0.8536999821662903 0.5189999938011169
          -0.06939999759197235 -0.7741000056266785 0.6291999816894531 -0.22419999539852142 -0.6901999711990356 0.6880000233650208
          0.1046999990940094 0.014100000262260437 -0.9944000244140625 0.0885000005364418 0.01769999973475933 -0.9958999752998352
          -0.009200000204145908 0.02459999918937683 -0.9997000098228455 -0.15700000524520874 0.046300001442432404 -0.9865000247955322
          -0.3549000024795532 0.04820000007748604 -0.9337000250816345 -0.5843999981880188 0.01140000019222498 -0.8113999962806702
          -0.5817000269889832 0.00800000037997961 -0.8133999705314636 0.266400009393692 -0.008299999870359898 -0.9638000130653381
          0.08540000021457672 0.031199999153614044 -0.9958999752998352 -0.6039999723434448 0.016599999740719795 -0.7968000173568726
          -0.7290999889373779 0 -0.6844000220298767 -0.8536999821662903 -0.003599999938160181 -0.520799994468689
          0.314300000667572 0.01140000019222498 -0.9492999911308289 0.367900013923645 -0.017999999225139618 -0.9297000169754028
          -0.921999990940094 -0.01850000023841858 -0.38659998774528503 -0.958299994468689 -0.06260000169277191 -0.27880001068115234
          -0.9793999791145325 -0.004399999976158142 -0.20170000195503235 0.41749998927116394 0.0032999999821186066 -0.9086999893188477
          -0.9990000128746033 -0.007499999832361937 0.04360000044107437 0.45579999685287476 0.034299999475479126 -0.8894000053405762
          0.5457000136375427 0.023800000548362732 -0.8377000093460083 0.05909999832510948 0.032600000500679016 0.9976999759674072
          -0.17389999330043793 0.04670000076293945 0.9836999773979187 0.3393999934196472 0.019200000911951065 0.9404000043869019
          0.5853000283241272 0.014999999664723873 0.810699999332428 0.8097000122070312 0.023600000888109207 0.5863999724388123
          -0.9898999929428101 -0.07360000163316727 0.12080000340938568 0.6624000072479248 0.0019000000320374966 -0.7491999864578247
          -0.28780001401901245 0.010700000450015068 0.9575999975204468 -0.13729999959468842 0.014499999582767487 0.9904000163078308
          -0.14720000326633453 0.035599999129772186 0.9884999990463257 0.9211000204086304 0.015699999406933784 0.3889000117778778
          0.9815000295639038 0.00559999980032444 0.1915999948978424 0.7268000245094299 0.00019999999494757503 -0.6869000196456909
          -0.4876999855041504 0.00139999995008111 0.8730000257492065 0.9889000058174133 0.06319999694824219 0.1348000019788742
          0.7627000212669373 -0.016300000250339508 -0.6464999914169312 0.9927999973297119 0.10849999636411667 0.049800001084804535
          0.9937999844551086 0.054999999701976776 -0.09690000116825104 0.7968000173568726 0.021299999207258224 -0.6039000153541565
          -0.5584999918937683 -0.024800000712275505 0.8291000127792358 0.9898999929428101 0.01140000019222498 -0.14149999618530273
          -0.9887999892234802 -0.12520000338554382 0.08060000091791153 -0.9909999966621399 -0.11230000108480453 0.07259999960660934
          0.8417999744415283 0.006899999920278788 -0.5397999882698059 -0.6607000231742859 -0.07209999859333038 0.7472000122070312
          0.9772999882698059 -0.059700001031160355 -0.2029999941587448 -0.9865000247955322 -0.13379999995231628 0.09470000118017197
          0.9023000001907349 -0.053199999034404755 -0.4277999997138977 -0.808899998664856 -0.13279999792575836 0.5727999806404114
          -0.9843000173568726 -0.1688999980688095 0.051100000739097595 0.9413999915122986 -0.08309999853372574 -0.32679998874664307
          -0.9309999942779541 -0.21709999442100525 0.2935999929904938 0.9704999923706055 -0.0982000008225441 -0.22040000557899475
          -0.9944000244140625 -0.10339999943971634 0.020400000736117363 0.9742000102996826 -0.08290000259876251 -0.20999999344348907
          -0.9704999923706055 -0.23720000684261322 0.0430000014603138 -0.9836000204086304 -0.15119999647140503 -0.09830000251531601
          0.9941999912261963 -0.016100000590085983 -0.10639999806880951 0.9959999918937683 -0.02669999934732914 -0.08540000021457672
          -0.9427000284194946 -0.11980000138282776 -0.31139999628067017 0.9940000176429749 0.008799999952316284 -0.10859999805688858
          -0.9789999723434448 -0.15489999949932098 -0.13230000436306 -0.9955000281333923 -0.08370000123977661 -0.04470000043511391
          0.9907000064849854 0.04050000011920929 0.1298000067472458 0.902999997138977 -0.1597999930381775 -0.39879998564720154
          -0.9840999841690063 -0.0843999981880188 0.15649999678134918 0.973800003528595 -0.016100000590085983 0.22669999301433563
          -0.8227999806404114 -0.03620000183582306 -0.5670999884605408 0.9239000082015991 -0.16349999606609344 -0.3458999991416931
          -0.9419999718666077 -0.08820000290870667 0.3237000107765198 0.9537000060081482 0.044599998742341995 0.29760000109672546
          -0.6643000245094299 -0.014100000262260437 -0.7473000288009644 -0.579200029373169 -0.08919999748468399 -0.8102999925613403
          -0.5600000023841858 -0.1339000016450882 -0.8176000118255615 0.7832000255584717 0.057500001043081284 -0.6190999746322632
          -0.9007999897003174 -0.10019999742507935 0.42250001430511475 0.9193000197410583 -0.02590000070631504 0.3928000032901764
          0.8828999996185303 0.04360000044107437 0.4675999879837036 -0.4560999870300293 -0.17900000512599945 -0.8716999888420105
          -0.3790999948978424 -0.12330000102519989 -0.9171000123023987 -0.35510000586509705 -0.11320000141859055 -0.9279999732971191
          -0.2110999971628189 -0.06360000371932983 -0.9753999710083008 -0.16670000553131104 -0.039799999445676804 -0.9851999878883362
          -0.18289999663829803 -0.07940000295639038 -0.9799000024795532 0.24950000643730164 0.04729999974370003 -0.967199981212616
          -0.8489000201225281 -0.12349999696016312 0.5138000249862671 0.8227999806404114 0.005900000222027302 0.5684000253677368
          0.7720000147819519 0.03720000013709068 0.6345999836921692 -0.6972000002861023 -0.17640000581741333 0.6948999762535095
          -0.7998999953269958 -0.10729999840259552 0.590399980545044 0.6987000107765198 -0.10320000350475311 0.7078999876976013