<?xml version="1.0"?>
<VTKFile type="PolyData" version="0.1" byte_order="LittleEndian" header_type="UInt32" compressor="vtkZLibDataCompressor">
  <PolyData>
    <FieldData>
      <Array type="String" Name="MaterialNames" NumberOfTuples="1" format="ascii">
        109 97 116 101 114 105 97 108 95 48 0
      </Array>
      <Array type="String" Name="MaterialLibraries" NumberOfTuples="1" format="ascii">
        109 97 116 101 114 105 97 108 46 109 116 108 0
      </Array>
    </FieldData>
    <Piece NumberOfPoints="20197" NumberOfVerts="0" NumberOfLines="0" NumberOfStrips="0" NumberOfPolys="40892">
      <PointData Normals="Normals">
        <DataArray type="Float32" Name="Normals" NumberOfComponents="3" format="ascii" RangeMin="0.9999209708266559" RangeMax="1.0000773918341679">
          0.9711999893188477 -0.1981000006198883 0.1324000060558319 0.9445000290870667 -0.21789999306201935 0.24580000340938568
          0.9632999897003174 -0.24940000474452972 0.09889999777078629 -0.34040001034736633 -0.17239999771118164 -0.9243000149726868
          -0.31869998574256897 -0.16830000281333923 -0.9327999949455261 -0.3465000092983246 -0.11069999635219574 -0.9315000176429749
          0.6547999978065491 -0.21789999306201935 -0.7236999869346619 0.7997999787330627 -0.17739999294281006 -0.5734000205993652
          0.645799994468689 -0.27140000462532043 -0.7135999798774719 -0.9235000014305115 0.1289999932050705 0.361299991607666
          -0.9628999829292297 0.09430000185966492 0.2529999911785126 -0.9710999727249146 0.11990000307559967 0.20649999380111694
          0.47909998893737793 0.042899999767541885 0.8766999840736389 0.35740000009536743 0.06790000200271606 0.9315000176429749
          0.2872999906539917 0.052299998700618744 0.9563999772071838 0.5713000297546387 -0.3086000084877014 -0.7605000138282776
          0.507099986076355 -0.3125 -0.8033000230789185 0.649399995803833 -0.25870001316070557 -0.7149999737739563
          -0.08640000224113464 0.9703999757766724 0.22550000250339508 0.00019999999494757503 0.9973999857902527 0.07150000333786011
          0.05119999870657921 0.98580002784729 0.16009999811649323 0.11749999970197678 -0.9886000156402588 0.09390000253915787
          -0.03929999843239784 -0.9991000294685364 0.015799999237060547 0.03880000114440918 -0.9886000156402588 0.14560000598430634
          -0.37400001287460327 0.37619999051094055 0.8476999998092651 -0.26840001344680786 0.38960000872612 0.8809999823570251
          -0.43700000643730164 0.33970001339912415 0.8327999711036682 0.4203000068664551 -0.4066999852657318 -0.8111000061035156
          0.2660999894142151 -0.34619998931884766 -0.8996000289916992 0.27000001072883606 -0.3504999876022339 -0.8967999815940857
          -0.6256999969482422 0.21140000224113464 0.7508999705314636 -0.5386999845504761 0.16670000553131104 0.8258000016212463
          -0.6672000288963318 0.15389999747276306 0.7287999987602234 0.7538999915122986 -0.0649000033736229 0.6538000106811523
          0.6847000122070312 -0.0820000022649765 0.7242000102996826 0.635699987411499 -0.05480000004172325 0.7699999809265137
          0.9549999833106995 -0.11699999868869781 0.27250000834465027 0.8615999817848206 -0.037700001150369644 0.5060999989509583
          0.9438999891281128 -0.13920000195503235 0.2994999885559082 -0.6988999843597412 0.10140000283718109 -0.7080000042915344
          -0.7444000244140625 0.1168999969959259 -0.6574000120162964 -0.6171000003814697 -0.052799999713897705 -0.785099983215332
          -0.5289000272750854 0.2685999870300293 0.8051000237464905 -0.374099999666214 0.21610000729560852 0.9018999934196472
          -0.3179999887943268 0.2224999964237213 0.9215999841690063 0.15410000085830688 -0.19519999623298645 -0.9685999751091003
          0.12359999865293503 -0.16979999840259552 -0.9776999950408936 0.05270000174641609 -0.15139999985694885 -0.9871000051498413
          0.014100000262260437 0.09889999777078629 0.9950000047683716 -0.4027999937534332 0.243599995970726 0.8823000192642212
          -0.2976999878883362 0.24770000576972961 0.921999990940094 -0.8165000081062317 0.19380000233650208 -0.5439000129699707
          -0.616599977016449 0.02419999986886978 -0.786899983882904 -0.8445000052452087 0.15629999339580536 -0.5123000144958496
          -0.6722999811172485 -0.07590000331401825 -0.7364000082015991 -0.7409999966621399 -0.07980000227689743 -0.666700005531311
          -0.6172999739646912 -0.07900000363588333 -0.7827000021934509 -0.6118999719619751 0.12070000171661377 -0.7815999984741211
          -0.5311999917030334 -0.05270000174641609 -0.8456000089645386 -0.6545000076293945 0.2563999891281128 -0.7111999988555908
          -0.4498000144958496 0.22769999504089355 -0.8636000156402588 -0.391400009393692 -0.2502000033855438 -0.8855999708175659
          -0.09369999915361404 0.011800000444054604 -0.9955000281333923 -0.7753999829292297 -0.35040000081062317 -0.5253000259399414
          0.011599999852478504 -0.4180000126361847 -0.9083999991416931 -0.49729999899864197 0.3019999861717224 -0.8133000135421753
          -0.44929999113082886 0.8815000057220459 0.1451999992132187 -0.34779998660087585 0.9017000198364258 -0.2567000091075897
          -0.22439999878406525 0.9093000292778015 0.35030001401901245 0.362199991941452 0.5807999968528748 0.7289999723434448
          0.09790000319480896 0.7777000069618225 0.6209999918937683 0.44369998574256897 0.6409000158309937 0.6263999938964844
          -0.23659999668598175 0.3765000104904175 0.8956999778747559 -0.3025999963283539 0.4198000133037567 0.8557000160217285
          -0.24889999628067017 0.3398999869823456 0.9068999886512756 0.34130001068115234 -0.652899980545044 0.6761999726295471
          0.4327000081539154 -0.7020999789237976 0.565500020980835 0.33169999718666077 -0.7544000148773193 0.5665000081062317
          -0.57669997215271 0.19599999487400055 -0.7930999994277954 -0.4519999921321869 0.271699994802475 -0.8496000170707703
          -0.4293000102043152 0.21979999542236328 -0.8759999871253967 0.6355999708175659 -0.13950000703334808 0.7592999935150146
          0.5264000296592712 -0.031700000166893005 0.8496000170707703 0.7935000061988831 0.043699998408555984 0.6069999933242798
          0.4397999942302704 -0.6888999938964844 0.576200008392334 0.035100001841783524 -0.3790000081062317 0.9247000217437744
          0.3675999939441681 -0.47929999232292175 0.7968999743461609 -0.6974999904632568 -0.2662999927997589 -0.6653000116348267
          -0.8533999919891357 -0.11509999632835388 -0.508400022983551 -0.8963000178337097 -0.20350000262260437 -0.39399999380111694
          0.5170000195503235 -0.023399999365210533 0.8557000160217285 0.4706999957561493 -0.027799999341368675 0.8819000124931335
          0.4611999988555908 -0.01889999955892563 0.8870999813079834 -0.24609999358654022 0.9681000113487244 -0.04610000178217888
          -0.3330000042915344 0.9381999969482422 0.09399999678134918 -0.2459000051021576 0.933899998664856 0.25949999690055847
          -0.9325000047683716 0.25519999861717224 0.2556999921798706 -0.980400025844574 0.15639999508857727 0.11969999969005585
          -0.9327999949455261 0.2476000040769577 0.2619999945163727 0.11940000206232071 -0.32989999651908875 0.9363999962806702
          0.07069999724626541 -0.01860000006854534 0.9973000288009644 0.16249999403953552 -0.3100000023841858 0.9366999864578247
          0.4765999913215637 0.27639999985694885 -0.8345999717712402 0.5587999820709229 0.19529999792575836 -0.8059999942779541
          0.7056000232696533 0.21619999408721924 -0.6747999787330627 0.9430000185966492 -0.31049999594688416 0.11940000206232071
          0.9158999919891357 -0.25920000672340393 0.30640000104904175 0.9417999982833862 -0.2551000118255615 0.21899999678134918
          -0.18299999833106995 -0.9830999970436096 -0.00279999990016222 0.05920000001788139 -0.9922999739646912 0.10920000076293945
          -0.08630000054836273 -0.9926999807357788 0.08399999886751175 -0.4239000082015991 0.22689999639987946 0.876800000667572
          -0.5591999888420105 0.2572000026702881 0.788100004196167 -0.44830000400543213 0.22010000050067902 0.8664000034332275
          0.5149000287055969 -0.7325000166893005 0.44530001282691956 0.392300009727478 -0.9049000144004822 0.16529999673366547
          0.5406000018119812 -0.5479999780654907 0.6384000182151794 0.17229999601840973 -0.6255999803543091 0.7609000205993652
          0.10679999738931656 -0.6780999898910522 0.7271000146865845 0.04010000079870224 -0.550000011920929 0.8342000246047974
          -0.7998999953269958 -0.243599995970726 -0.5483999848365784 -0.853600025177002 -0.3312999904155731 -0.4020000100135803
          -0.8996000289916992 -0.0723000019788742 -0.43070000410079956 -0.16519999504089355 0.1647000014781952 -0.9724000096321106
          -0.18289999663829803 0.2272000014781952 -0.9564999938011169 -0.09139999747276306 0.18029999732971191 -0.9793999791145325
          0.7279000282287598 0.47380000352859497 -0.49570000171661377 0.26249998807907104 -0.21899999678134918 -0.9397000074386597
          0.5444999933242798 0.1746000051498413 -0.8203999996185303 -0.36880001425743103 0.19789999723434448 0.9082000255584717
          -0.23149999976158142 0.13519999384880066 0.9634000062942505 -0.29319998621940613 0.18770000338554382 0.9373999834060669
          -0.25929999351501465 0.8867999911308289 0.38260000944137573 -0.33809998631477356 0.7894999980926514 0.5121999979019165
          -0.2851000130176544 0.8561999797821045 0.4309000074863434 0.5676000118255615 0.22660000622272491 -0.7914999723434448
          0.7487999796867371 0.35989999771118164 -0.5565000176429749 0.7483000159263611 -0.10300000011920929 -0.6553999781608582
          -0.9358000159263611 0.0754999965429306 -0.3443000018596649 -0.929099977016449 0.031599998474121094 -0.3684999942779541
          -0.9487000107765198 0.1031000018119812 -0.29899999499320984 -0.6187000274658203 -0.021299999207258224 -0.7853999733924866
          -0.7279999852180481 0.04740000143647194 -0.683899998664856 -0.7422000169754028 0.10750000178813934 -0.6614999771118164
          0.9925000071525574 -0.11959999799728394 -0.023800000548362732 0.8758000135421753 -0.22360000014305115 -0.4275999963283539
          0.9121999740600586 -0.22529999911785126 -0.3422999978065491 0.1014999970793724 0.11309999972581863 0.9883999824523926
          0.2151000052690506 0.1527000069618225 0.9646000266075134 0.22930000722408295 0.0786999985575676 0.9702000021934509
          0.9429000020027161 -0.2371000051498413 0.23409999907016754 0.9272000193595886 -0.13920000195503235 0.34790000319480896
          0.5260999798774719 -0.16850000619888306 -0.8335999846458435 0.5130000114440918 -0.17649999260902405 -0.8400999903678894
          0.6784999966621399 -0.27140000462532043 -0.6826000213623047 0.12880000472068787 -0.9684000015258789 -0.21369999647140503
          0.01850000023841858 -0.9229999780654907 -0.38429999351501465 0.21539999544620514 -0.8065999746322632 -0.5504000186920166
          -0.33219999074935913 0.9135000109672546 0.23499999940395355 -0.07329999655485153 0.8345999717712402 0.5460000038146973
          0.01720000058412552 0.8140000104904175 0.5806000232696533 -0.039799999445676804 0.998199999332428 0.04390000179409981
          -0.18970000743865967 0.9627000093460083 0.19269999861717224 -0.04280000180006027 0.9817000031471252 0.18549999594688416
          -0.3287000060081482 -0.7106000185012817 0.6222000122070312 -0.26570001244544983 -0.8921999931335449 0.3650999963283539
          -0.5 -0.8245000243186951 0.2648000121116638 0.6590999960899353 0.5932999849319458 -0.46219998598098755
          0.6288999915122986 0.35100001096725464 -0.6937999725341797 0.7287999987602234 0.5472000241279602 -0.4115999937057495
          -0.39629998803138733 -0.45719999074935913 -0.7961999773979187 -0.39800000190734863 -0.10119999945163727 -0.9118000268936157
          -0.4099000096321106 -0.6843000054359436 -0.6029999852180481 0.9365000128746033 0.24279999732971191 -0.2531000077724457
          0.8400999903678894 0.5292999744415283 0.11869999766349792 0.8432000279426575 0.5022000074386597 0.19220000505447388
          0.8087000250816345 -0.22709999978542328 -0.5425999760627747 0.9016000032424927 -0.22679999470710754 -0.3684999942779541
          0.8479999899864197 -0.08910000324249268 -0.5224000215530396 0.4178999960422516 0.7462000250816345 -0.5181999802589417
          0.3889000117778778 0.8009999990463257 -0.4551999866962433 0.26179999113082886 0.9509999752044678 -0.1648000031709671
          0.19259999692440033 -0.9473000168800354 0.25600001215934753 0.24040000140666962 -0.9587000012397766 0.1517000049352646
          0.1712000072002411 -0.9789999723434448 0.11060000211000443 -0.9593999981880188 0.26350000500679016 -0.10040000081062317
          -0.9775000214576721 0.1152999997138977 -0.17659999430179596 -0.9253000020980835 0.15440000593662262 -0.34630000591278076
          0.779699981212616 0.01979999989271164 0.6258000135421753 0.7662000060081482 0.07410000264644623 0.6384000182151794
          0.7831000089645386 -0.03799999877810478 0.6207000017166138 -0.9546999931335449 0.28200000524520874 0.0949999988079071
          -0.8977000117301941 0.2736000120639801 0.34529998898506165 -0.9375 0.20430000126361847 0.2816999852657318
          -0.8956999778747559 0.1420000046491623 -0.4212999939918518 -0.853600025177002 0.16189999878406525 -0.4950999915599823
          -0.9187999963760376 0.2150000035762787 -0.3310999870300293 0.19120000302791595 -0.18880000710487366 -0.9631999731063843
          0.24420000612735748 -0.15970000624656677 -0.9564999938011169 0.8532999753952026 -0.149399995803833 0.49959999322891235
          0.8323000073432922 -0.09860000014305115 0.5454000234603882 0.8425999879837036 -0.13830000162124634 0.5205000042915344
          -0.5059000253677368 0.1655000001192093 0.8465999960899353 -0.5033000111579895 0.2547999918460846 0.8256999850273132
          0.13850000500679016 0.2558000087738037 0.9567999839782715 -0.9097999930381775 0.21570000052452087 -0.3546000123023987
          -0.8968999981880188 0.1761000007390976 -0.40560001134872437 -0.866100013256073 0.1525000035762787 -0.47600001096725464
          0.5662999749183655 -0.6635000109672546 0.48899999260902405 0.8450999855995178 -0.296999990940094 -0.44449999928474426
          0.7700999975204468 -0.226500004529953 -0.5963000059127808 0.679099977016449 0.6383000016212463 -0.36250001192092896
          0.8519999980926514 0.45410001277923584 -0.260699987411499 0.7889000177383423 0.4675999879837036 -0.3986999988555908
          0.24420000612735748 0.1891999989748001 0.9510999917984009 0.16590000689029694 0.14409999549388885 0.975600004196167
          0.13750000298023224 0.20110000669956207 0.9699000120162964 0.9656000137329102 -0.13910000026226044 0.2198999971151352
          0.9614999890327454 -0.1354999989271164 0.23919999599456787 0.9302999973297119 -0.15970000624656677 0.3301999866962433
          -0.847000002861023 0.08630000054836273 -0.5245000123977661 -0.807699978351593 0.09380000084638596 -0.582099974155426
          -0.932699978351593 0.16699999570846558 -0.319599986076355 0.9074000120162964 -0.2581999897956848 -0.33160001039505005
          0.9442999958992004 -0.24060000479221344 -0.22450000047683716 0.8026999831199646 -0.3066999912261963 -0.5115000009536743
          -0.0568000003695488 0.23690000176429749 -0.9699000120162964 -0.6159999966621399 0.048500001430511475 -0.7861999869346619
          0.06030000001192093 -0.37220001220703125 -0.9261999726295471 0.36719998717308044 -0.18389999866485596 0.9118000268936157
          0.24940000474452972 -0.020999999716877937 0.9682000279426575 0.11840000003576279 -0.1492999941110611 0.9817000031471252
          -0.49869999289512634 0.40560001134872437 -0.765999972820282 -0.8123999834060669 0.367000013589859 -0.4530999958515167
          -0.75 0.17000000178813934 -0.63919997215271 0.28459998965263367 0.7687000036239624 -0.5727999806404114
          0.6805999875068665 0.2872999906539917 -0.6739000082015991 0.46129998564720154 0.7006999850273132 -0.5443000197410583
          0.013000000268220901 -0.9998999834060669 -0.0027000000700354576 -0.2549999952316284 -0.9632999897003174 -0.08429999649524689
          -0.16130000352859497 -0.9675999879837036 -0.19439999759197235 -0.2989000082015991 -0.9542999863624573 -0.004399999976158142
          -0.2913999855518341 -0.9556999802589417 0.041600000113248825 -0.0860000029206276 -0.9958000183105469 0.03220000118017197
          0.8068000078201294 -0.5902000069618225 -0.026599999517202377 0.8093000054359436 -0.5626999735832214 -0.16840000450611115
          0.8147000074386597 -0.572700023651123 -0.0908999964594841 -0.82669997215271 0.2808000147342682 0.4875999987125397
          -0.8306000232696533 0.19930000603199005 0.5199999809265137 -0.746399998664856 0.4747999906539917 0.46630001068115234
          -0.6669999957084656 0.3537999987602234 0.6557000279426575 -0.508400022983551 0.2930000126361847 0.8097000122070312
          -0.8163999915122986 0.38749998807907104 0.42809998989105225 -0.8554999828338623 0.1535000056028366 -0.4945000112056732
          -0.6726999878883362 0.025299999862909317 -0.7394999861717224 -0.6890000104904175 0.061500001698732376 -0.722100019454956
          0.8125 0.28110000491142273 0.5108000040054321 0.8838000297546387 0.3084000051021576 0.3517000079154968
          0.8999000191688538 0.1835000067949295 0.39570000767707825 -0.09780000150203705 0.43309998512268066 0.8960000276565552
          -0.06239999830722809 0.4803999960422516 0.8748000264167786 0.040300000458955765 0.44110000133514404 0.8966000080108643
          0.6571999788284302 -0.5019999742507935 -0.5620999932289124 0.6498000025749207 -0.4652000069618225 -0.6011000275611877
          0.6151000261306763 -0.48019999265670776 -0.6252999901771545 0.7549999952316284 -0.5702000260353088 -0.3237000107765198
          0.8532000184059143 -0.43689998984336853 -0.2847000062465668 0.7524999976158142 -0.4902999997138977 -0.4397999942302704
          0.8393999934196472 -0.3865000009536743 0.382099986076355 0.6814000010490417 -0.6420999765396118 0.3513000011444092
          0.382099986076355 -0.7218999862670898 0.5770000219345093 -0.5336999893188477 0.6909000277519226 -0.4876999855041504
          -0.10400000214576721 0.9086999893188477 -0.4041999876499176 -0.5166000127792358 0.855400025844574 0.037700001150369644
          0.18520000576972961 -0.014999999664723873 0.9825999736785889 0.4700999855995178 -0.5989000201225281 0.6484000086784363
          -0.2978000044822693 -0.8867999911308289 0.35339999198913574 -0.9610999822616577 0.06469999998807907 -0.2687000036239624
          -0.953499972820282 -0.013399999588727951 0.3012999892234802 -0.9722999930381775 -0.2190999984741211 -0.08129999786615372
          -0.04969999939203262 -0.9725000262260437 -0.22769999504089355 -0.11789999902248383 -0.9919999837875366 -0.04399999976158142
          0.04039999842643738 -0.9991000294685364 -0.013799999840557575 -0.2313999980688095 0.698199987411499 -0.6773999929428101
          -0.3278000056743622 0.6237999796867371 -0.7095000147819519 0.04910000041127205 0.9926999807357788 -0.1103999987244606
          -0.0471000000834465 -0.9976000189781189 -0.05139999836683273 0.21459999680519104 -0.9761999845504761 0.02969999983906746
          0.006599999964237213 -0.9952999949455261 -0.09679999947547913 0.4528000056743622 0.1371999979019165 0.8809999823570251
          0.5347999930381775 -0.020500000566244125 0.8446999788284302 0.35989999771118164 -0.15839999914169312 0.9194999933242798
          0.5861999988555908 0.1103999987244606 0.8026000261306763 0.49549999833106995 -0.2224999964237213 0.8396000266075134
          0.7545999884605408 0.16130000352859497 0.6360999941825867 0.03970000147819519 0.8507999777793884 0.5239999890327454
          -0.6507999897003174 0.7423999905586243 0.15929999947547913 0.2621999979019165 0.8809999823570251 -0.3937999904155731
          0.21279999613761902 -0.4049000144004822 0.8892999887466431 -0.29980000853538513 -0.5164999961853027 0.8021000027656555
          0.188400000333786 -0.2653999924659729 0.9455000162124634 0.09830000251531601 -0.9800000190734863 0.17329999804496765
          0.2687000036239624 -0.7716000080108643 0.5766000151634216 0.05299999937415123 -0.8840000033378601 0.4645000100135803
          -0.5410000085830688 -0.3709000051021576 -0.754800021648407 -0.6463000178337097 -0.33570000529289246 -0.6852999925613403
          -0.6621000170707703 -0.39250001311302185 -0.6384000182151794 -0.2606000006198883 0.3122999966144562 0.9135000109672546
          0.015599999576807022 0.3370000123977661 0.9413999915122986 -0.28360000252723694 0.43130001425743103 0.8565000295639038
          -0.5817999839782715 0.11190000176429749 0.8055999875068665 -0.42739999294281006 0.30630001425743103 0.850600004196167
          -0.6794999837875366 -0.19589999318122864 0.7070000171661377 -0.7549999952316284 0.5809000134468079 0.3041999936103821
          -0.704800009727478 0.5992000102996826 0.3797000050544739 -0.8427000045776367 0.5270000100135803 0.11029999703168869
          0.5468999743461609 0.0843999981880188 0.8328999876976013 0.5092999935150146 -0.050999999046325684 0.8590999841690063
          0.6183000206947327 0.125900000333786 0.7757999897003174 -0.1451999992132187 -0.8996999859809875 -0.4115999937057495
          0.482699990272522 -0.6988999843597412 -0.5277000069618225 -0.003800000064074993 -0.722000002861023 -0.6917999982833862
          0.15369999408721924 -0.21660000085830688 -0.9641000032424927 0.19670000672340393 -0.10100000351667404 -0.9751999974250793
          0.17720000445842743 -0.2231999933719635 -0.9585000276565552 0.7272999882698059 -0.29339998960494995 -0.6205000281333923
          0.8529000282287598 -0.26669999957084656 -0.4489000141620636 0.7789999842643738 -0.18639999628067017 -0.5986999869346619
          0.4918000102043152 0.08959999680519104 0.866100013256073 0.13179999589920044 0.1451999992132187 0.9805999994277954
          0.3887999951839447 -0.008299999870359898 0.9212999939918518 -0.25290000438690186 0.1535000056028366 0.9552000164985657
          -0.12729999423027039 0.11949999630451202 0.9846000075340271 -0.0210999995470047 0.06279999762773514 0.9977999925613403
          -0.8978000283241272 0.1776999980211258 -0.40310001373291016 -0.909500002861023 0.1542000025510788 -0.38600000739097595
          -0.9241999983787537 0.12150000035762787 -0.3621000051498413 -0.4819999933242798 0.25130000710487366 0.8393999934196472
          -0.6550999879837036 0.2313999980688095 0.7192000150680542 -0.6078000068664551 0.335099995136261 0.7199000120162964
          -0.8550999760627747 0.11949999630451202 -0.5044999718666077 -0.7965999841690063 0.21400000154972076 -0.5654000043869019
          -0.8398000001907349 0.1573999971151352 -0.519599974155426 -0.64410001039505 0.2937999963760376 -0.7062000036239624
          0.055399999022483826 -0.9959999918937683 -0.07020000368356705 -0.08940000087022781 -0.9916999936103821 0.0925000011920929
          0.050200000405311584 -0.9980000257492065 0.03929999843239784 -0.5612000226974487 0.017400000244379044 -0.8274999856948853
          -0.4869000017642975 0.07069999724626541 -0.8705999851226807 -0.49729999899864197 0.1396999955177307 -0.8561999797821045
          0.932699978351593 -0.28349998593330383 0.22290000319480896 0.9178000092506409 -0.23440000414848328 0.3206000030040741
          0.9517999887466431 -0.23919999599456787 0.19200000166893005 -0.16910000145435333 -0.9743000268936157 -0.14869999885559082
          -0.21870000660419464 -0.8080000281333923 -0.5471000075340271 0.08669999986886978 -0.7803999781608582 -0.6191999912261963
          -0.430400013923645 -0.09160000085830688 0.8980000019073486 -0.4122999906539917 -0.12950000166893005 0.9017999768257141
          -0.4235000014305115 -0.1941000074148178 0.8848999738693237 0.041200000792741776 -0.28360000252723694 0.9581000208854675
          -0.00139999995008111 -0.37119999527931213 0.9284999966621399 0.028200000524520874 -0.33640000224113464 0.9412999749183655
          -0.6075000166893005 -0.17000000178813934 -0.7759000062942505 -0.8375999927520752 -0.08780000358819962 -0.5390999913215637
          -0.6628999710083008 0.08309999853372574 -0.7440000176429749 0.6011999845504761 -0.219200000166893 0.7684000134468079
          0.4383000135421753 -0.24140000343322754 0.8658000230789185 0.7041000127792358 -0.2079000025987625 0.6790000200271606
          0.7447999715805054 -0.49459999799728394 -0.4478999972343445 0.016499999910593033 -0.3190000057220459 -0.9476000070571899
          -0.10559999942779541 -0.6633999943733215 -0.7408000230789185 -0.44929999113082886 -0.20649999380111694 -0.8691999912261963
          -0.678600013256073 -0.1379999965429306 -0.7214999794960022 -0.9056000113487244 -0.20489999651908875 -0.37130001187324524
          0.3880999982357025 -0.2361000031232834 0.8909000158309937 0.36579999327659607 0.12430000305175781 0.9223999977111816
          0.3165999948978424 0.14249999821186066 0.9377999901771545 -0.5547999739646912 0.8263999819755554 -0.09589999914169312
          -0.38449999690055847 0.555899977684021 0.7369999885559082 -0.728600025177002 0.46070000529289246 0.5067999958992004
          0.39910000562667847 -0.35030001401901245 -0.8474000096321106 0.2522999942302704 -0.17800000309944153 -0.9510999917984009
          0.23010000586509705 -0.1535000056028366 -0.9610000252723694 0.9581999778747559 -0.1712999939918518 -0.2290000021457672
          0.9688000082969666 -0.2370000034570694 -0.07240000367164612 0.9818999767303467 -0.18880000710487366 0.01590000092983246
          -0.957099974155426 -0.09920000284910202 -0.2721000015735626 -0.953499972820282 -0.09870000183582306 -0.2847000062465668
          -0.838699996471405 -0.23479999601840973 -0.49140000343322754 -0.31380000710487366 -0.5699999928474426 -0.7594000101089478
          -0.4277999997138977 -0.6960999965667725 -0.5766000151634216 -0.1550000011920929 -0.652999997138977 -0.7414000034332275
          -0.13600000739097595 0.6599000096321106 -0.7390000224113464 -0.06040000170469284 0.7005000114440918 -0.7110999822616577
          0.09749999642372131 0.98089998960495 -0.16830000281333923 0.3075000047683716 -0.01269999984651804 -0.9514999985694885
          0.38659998774528503 -0.8644000291824341 -0.3215999901294708 0.8769000172615051 0.11649999767541885 -0.46630001068115234
          -0.5048999786376953 0.005499999970197678 -0.8632000088691711 -0.7714999914169312 -0.05299999937415123 -0.6341000199317932
          -0.5733000040054321 -0.042100001126527786 -0.8183000087738037 -0.07580000162124634 0.36399999260902405 -0.9283000230789185
          -0.42989999055862427 0.4422999918460846 -0.7871000170707703 -0.3010999858379364 0.4715000092983246 -0.8288999795913696
          0.4975999891757965 0.48739999532699585 0.7174999713897705 -0.8373000025749207 -0.12729999423027039 0.5317000150680542
          -0.517300009727478 0.8465999960899353 -0.125 0.1509000062942505 -0.7020999789237976 0.695900022983551
          -0.006399999838322401 -0.9950000047683716 0.09969999641180038 -0.20559999346733093 -0.8245000243186951 0.5271000266075134
          0.79830002784729 -0.5712000131607056 0.19089999794960022 0.2084999978542328 -0.05389999970793724 -0.9764999747276306
          -0.1445000022649765 0.07329999655485153 -0.9868000149726868 0.14980000257492065 -0.39469999074935913 -0.906499981880188
          -0.7533000111579895 0.6230000257492065 -0.21070000529289246 -0.9517999887466431 0.1216999962925911 -0.2815999984741211
          -0.27390000224113464 -0.22830000519752502 0.9343000054359436 -0.05590000003576279 -0.12389999628067017 0.9907000064849854
          0.18790000677108765 -0.2922999858856201 0.9376999735832214 -0.32199999690055847 -0.47940000891685486 -0.8163999915122986
          -0.27469998598098755 -0.19900000095367432 -0.9406999945640564 -0.17970000207424164 -0.22599999606609344 -0.9574000239372253
          0.1444000005722046 0.8059999942779541 -0.5740000009536743 -0.5044999718666077 0.2685999870300293 -0.8205999732017517
          -0.2791000008583069 0.36329999566078186 -0.8888999819755554 -0.8065999746322632 0.24969999492168427 0.5357999801635742
          -0.6689000129699707 0.22930000722408295 0.707099974155426 -0.8226000070571899 0.22849999368190765 0.5206999778747559
          -0.7168999910354614 0.1348000019788742 -0.6840000152587891 -0.6955000162124634 0.1120000034570694 -0.7098000049591064
          -0.6003999710083008 0.03610000014305115 -0.7989000082015991 0.4350000023841858 -0.01730000041425228 0.9002000093460083
          0.6237000226974487 0.023900000378489494 0.7813000082969666 0.5981000065803528 -0.07479999959468842 0.7979000210762024
          -0.29739999771118164 0.23399999737739563 0.925599992275238 -0.4410000145435333 0.2637999951839447 0.8579000234603882
          -0.18719999492168427 0.23180000483989716 0.9545999765396118 -0.38769999146461487 0.6808000206947327 -0.6215000152587891
          -0.29339998960494995 0.593500018119812 -0.7494999766349792 -0.22460000216960907 0.784600019454956 -0.5778999924659729
          -0.057999998331069946 0.998199999332428 -0.015300000086426735 0.19619999825954437 0.9772999882698059 -0.08049999922513962
          -0.1412000060081482 0.9818999767303467 0.12610000371932983 -0.6184999942779541 -0.2361000031232834 0.7494000196456909
          -0.8927000164985657 -0.298799991607666 0.33730000257492065 -0.8198000192642212 -0.0035000001080334187 0.5726000070571899
          0.7955999970436096 0.4408000111579895 -0.4154999852180481 0.6503999829292297 0.6065000295639038 -0.45719999074935913
          0.8137999773025513 0.4578000009059906 -0.3580000102519989 -0.9072999954223633 0.16529999673366547 -0.38659998774528503
          -0.8981000185012817 0.2062000036239624 -0.38839998841285706 -0.8992999792098999 0.1818999946117401 -0.3977000117301941
          0.7384999990463257 -0.20479999482631683 -0.6424000263214111 0.8036999702453613 -0.3447999954223633 -0.48489999771118164