<?xml version="1.0"?>
<VTKFile type="PolyData" version="0.1" byte_order="LittleEndian" header_type="UInt32" compressor="vtkZLibDataCompressor">
  <PolyData>
    <FieldData>
      <Array type="String" Name="MaterialNames" NumberOfTuples="1" format="ascii">
        109 97 116 101 114 105 97 108 95 48 0
      </Array>
      <Array type="String" Name="MaterialLibraries" NumberOfTuples="1" format="ascii">
        109 97 116 101 114 105 97 108 46 109 116 108 0
      </Array>
    </FieldData>
    <Piece NumberOfPoints="17129" NumberOfVerts="0" NumberOfLines="0" NumberOfStrips="0" NumberOfPolys="34728">
      <PointData Normals="Normals">
        <DataArray type="Float32" Name="Normals" NumberOfComponents="3" format="ascii" RangeMin="0.9999205289912467" RangeMax="1.0000761010680281">
          -0.010200000368058681 -0.9639999866485596 0.26579999923706055 -0.7346000075340271 -0.43709999322891235 0.5189999938011169
          -0.6057999730110168 -0.7170000076293945 0.3449999988079071 -0.9340999722480774 0.07440000027418137 0.3492000102996826
          -0.633400022983551 -0.7720999717712402 0.051100000739097595 -0.9940999746322632 -0.08900000154972076 0.062199998646974564
          -0.34450000524520874 -0.8346999883651733 -0.42969998717308044 -0.8454999923706055 -0.32429999113082886 -0.42419999837875366
          -0.4138000011444092 -0.732699990272522 0.5404000282287598 -0.7121999859809875 -0.07000000029802322 0.6984999775886536
          -0.6043999791145325 -0.6577000021934509 0.4496000111103058 -0.8682000041007996 0.09759999811649323 0.48649999499320984
          -0.8144000172615051 -0.5274999737739563 0.2418999969959259 -0.13770000636577606 -0.972599983215332 0.1875
          -0.9628000259399414 0.08129999786615372 0.25780001282691956 -0.9175000190734863 -0.29829999804496765 0.2632000148296356
          -0.927299976348877 -0.004699999932199717 0.37439998984336853 -0.9858999848365784 0.020600000396370888 0.16609999537467957
          -0.8511000275611877 -0.13950000703334808 -0.5060999989509583 -0.3628000020980835 -0.6897000074386597 -0.6266999840736389
          -0.7384999990463257 0.035100001841783524 0.6733999848365784 -0.2460000067949295 -0.7788000106811523 0.5770999789237976
          -0.7770000100135803 0.021199999377131462 0.6291000247001648 -0.8792999982833862 0.02630000002682209 0.475600004196167
          -0.9031000137329102 0.0568000003695488 0.42559999227523804 -0.9679999947547913 -0.030899999663233757 0.24899999797344208
          -0.9921000003814697 0.0044999998062849045 -0.12540000677108765 -0.9187999963760376 -0.00570000009611249 -0.39469999074935913
          -0.6527000069618225 -0.1867000013589859 -0.7342000007629395 -0.7379000186920166 -0.01489999983459711 0.6747999787330627
          -0.8931999802589417 -0.0017000000225380063 0.4496000111103058 -0.9394000172615051 -0.046799998730421066 0.33959999680519104
          -0.9286999702453613 -0.016699999570846558 0.37040001153945923 -0.9872999787330627 0.0008999999845400453 0.15880000591278076
          -0.9995999932289124 0.006000000052154064 0.02850000001490116 -0.7702999711036682 -0.04639999940991402 -0.6359999775886536
          -0.887499988079071 0.07490000128746033 -0.4546000063419342 -0.6014999747276306 -0.08529999852180481 -0.7943000197410583
          -0.6517000198364258 -0.2160000056028366 0.7269999980926514 -0.5864999890327454 0.1647000014781952 0.7929999828338623
          -0.22630000114440918 -0.6261000037193298 0.7462000250816345 -0.6765999794006348 0.03629999980330467 0.7354999780654907
          -0.7745000123977661 -0.051100000739097595 0.6305000185966492 -0.8759999871253967 -0.05209999904036522 0.4796000123023987
          -0.9120000004768372 -0.04470000043511391 0.40779998898506165 0.47360000014305115 0.8353999853134155 -0.2791000008583069
          0.807699978351593 0.3628000020980835 -0.46480000019073486 0.6988999843597412 0.5910000205039978 -0.40290001034736633
          -0.920199990272522 -0.03229999914765358 0.39010000228881836 0.7757999897003174 0.5979999899864197 -0.2012999951839447
          -0.9376999735832214 -0.004100000020116568 0.3472999930381775 0.9348000288009644 0.18080000579357147 -0.3059000074863434
          0.8822000026702881 0.0005000000237487257 -0.4708999991416931 -0.9571999907493591 -0.03440000116825104 0.2874999940395355
          0.9801999926567078 0.0786999985575676 -0.18150000274181366 0.9629999995231628 0.2694999873638153 0.004600000102072954
          0.9679999947547913 0.2272000014781952 0.10670000314712524 0.4088999927043915 0.8881999850273132 -0.2094999998807907
          0.7936999797821045 0.608299970626831 -0.00860000029206276 -0.9886000156402588 -0.028200000524520874 0.14800000190734863
          0.9782999753952026 0.10999999940395355 0.17550000548362732 0.7900000214576721 0.41359999775886536 0.45249998569488525
          0.25929999351501465 0.8960000276565552 0.3605000078678131 -0.9840999841690063 -0.07850000262260437 -0.15940000116825104
          -0.9973999857902527 -0.052400000393390656 -0.048700001090765 -0.9070000052452087 -0.2071000039577484 -0.3666999936103821
          -0.649399995803833 0.0071000000461936 0.7603999972343445 0.2370000034570694 0.8220000267028809 -0.517799973487854
          0.6571000218391418 0.7318999767303467 -0.18050000071525574 0.8133000135421753 0.27379998564720154 -0.5134000182151794
          -0.8633999824523926 -0.09179999679327011 0.4961000084877014 0.6703000068664551 0.5823000073432922 -0.460099995136261
          0.7712000012397766 -0.21649999916553497 -0.5985999703407288 0.9470000267028809 -0.09149999916553497 -0.30799999833106995
          0.838100016117096 0.07649999856948853 -0.5400999784469604 0.8361999988555908 0.20980000495910645 -0.5066999793052673
          0.6412000060081482 -0.23819999396800995 -0.7294999957084656 0.7702000141143799 0.05119999870657921 -0.635699987411499
          0.7002000212669373 -0.08959999680519104 -0.708299994468689 -0.9154000282287598 -0.09489999711513519 0.3910999894142151
          0.8974999785423279 0.0771000012755394 -0.4341000020503998 0.8633999824523926 -0.0019000000320374966 -0.5044999718666077
          0.9449999928474426 0.014100000262260437 -0.32679998874664307 -0.9526000022888184 -0.1242000013589859 0.2775000035762787
          0.9789999723434448 -0.021800000220537186 -0.20280000567436218 0.9979000091552734 0.038600001484155655 -0.051899999380111694
          -0.989799976348877 -0.07980000227689743 0.11810000240802765 0.9825000166893005 0.10559999942779541 0.1535000056028366
          0.9448999762535095 0.04010000079870224 0.3249000012874603 0.8834999799728394 0.08370000123977661 0.4609000086784363
          0.8416000008583069 0.021900000050663948 0.5396000146865845 -0.9976000189781189 -0.0697999969124794 -0.0020000000949949026
          0.7246999740600586 0.28690001368522644 0.6265000104904175 -0.9704999923706055 -0.04019999876618385 -0.23759999871253967
          -0.9595000147819519 -0.05009999871253967 -0.27709999680519104 -0.8203999996185303 0.03400000184774399 -0.5708000063896179
          -0.7813000082969666 -0.0851999968290329 -0.618399977684021 -0.17159999907016754 -0.4535999894142151 0.8744999766349792
          -0.6287000179290771 0.11240000277757645 0.7695000171661377 -0.7229999899864197 -0.07850000262260437 0.6863999962806702
          -0.8011999726295471 -0.09470000118017197 0.5909000039100647 0.513700008392334 -0.04470000043511391 -0.8568000197410583
          -0.07540000230073929 0.08609999716281891 -0.993399977684021 0.388700008392334 0.18950000405311584 -0.9017000198364258
          0.056699998676776886 -0.14669999480247498 -0.9876000285148621 -0.365200012922287 0.6119999885559082 -0.7014999985694885
          -0.43779999017715454 0.367900013923645 -0.8202999830245972 -0.45750001072883606 0.05490000173449516 -0.887499988079071
          0.7258999943733215 -0.038600001484155655 -0.6866999864578247 0.7578999996185303 -0.10490000247955322 -0.6438999772071838
          0.2337999939918518 -0.09860000014305115 -0.9672999978065491 0.8784000277519226 0.07959999889135361 -0.47130000591278076
          -0.8508999943733215 -0.09570000320672989 0.5164999961853027 -0.9072999954223633 -0.08169999718666077 0.4124000072479248
          0.9828000068664551 -0.018300000578165054 -0.18369999527931213 0.9890999794006348 -0.06629999727010727 -0.1316000074148178
          0.8883000016212463 0.33180001378059387 -0.3176000118255615 0.9830999970436096 -0.10670000314712524 -0.148499995470047
          -0.9124000072479248 -0.05380000174045563 0.4058000147342682 0.9478999972343445 -0.3084999918937683 0.07919999957084656
          0.815500020980835 -0.48350000381469727 -0.3181999921798706 0.5188000202178955 -0.5200999975204468 -0.6784999966621399
          -0.8956000208854675 -0.10339999943971634 0.4327000081539154 0.671999990940094 0.19140000641345978 -0.715399980545044
          0.743399977684021 -0.03099999949336052 -0.6682000160217285 0.3901999890804291 0.07649999856948853 -0.9175000190734863
          0.09740000218153 0.3418000042438507 -0.9347000122070312 0.4675999879837036 0.47540000081062317 -0.745199978351593
          -0.00139999995008111 0.4156000018119812 -0.909600019454956 0.3249000012874603 0.35010001063346863 -0.878600001335144
          -0.002199999988079071 -0.06729999929666519 -0.9976999759674072 0.483599990606308 -0.07159999758005142 -0.8723000288009644
          0.8245000243186951 0.24160000681877136 -0.5116000175476074 0.8747000098228455 0.030500000342726707 -0.483599990606308
          -0.8852999806404114 -0.1623000055551529 0.4357999861240387 0.947700023651123 0.18479999899864197 -0.26010000705718994
          0.9314000010490417 -0.0019000000320374966 -0.36399999260902405 0.9337999820709229 0.11509999632835388 -0.33869999647140503
          -0.8960000276565552 -0.053199999034404755 0.4408999979496002 0.9707000255584717 0.06620000302791595 -0.23109999299049377
          -0.9182999730110168 -0.039900001138448715 0.3939000070095062 -0.9412999749183655 -0.16699999570846558 0.29339998960494995
          0.9987999796867371 -0.0210999995470047 -0.04360000044107437 0.9528999924659729 0.03849999979138374 -0.30079999566078186
          -0.9689000248908997 -0.0027000000700354576 0.24719999730587006 0.9801999926567078 0.01140000019222498 -0.19750000536441803
          -0.9851999878883362 -0.09009999781847 0.1460999995470047 -0.9921000003814697 -0.030300000682473183 0.12150000035762787
          0.9941999912261963 -0.0414000004529953 0.09920000284910202 -0.9932000041007996 -0.04670000076293945 0.1071000024676323
          0.9440000057220459 0.028599999845027924 0.3287000060081482 0.9057999849319458 0.02410000003874302 0.42309999465942383
          0.5979999899864197 0.08250000327825546 0.7972000241279602 0.75 -0.02889999933540821 0.6607999801635742
          0.7343000173568726 0.0017999999690800905 0.6787999868392944 -0.9983000159263611 -0.054999999701976776 -0.018799999728798866
          0.5001000165939331 0.10819999873638153 0.8592000007629395 0.5705999732017517 0.35670000314712524 0.7397000193595886
          -0.28299999237060547 0.6951000094413757 0.6607999801635742 0.0421999990940094 0.3666999936103821 0.9294000267982483
          0.3747999966144562 0.8234999775886536 0.4259999990463257 0.11159999668598175 0.287200003862381 0.9513000249862671
          -0.9100000262260437 0.038100000470876694 -0.41290000081062317 -0.9366000294685364 0.016499999910593033 -0.35010001063346863
          -0.9531000256538391 -0.03750000149011612 -0.3001999855041504 -0.7608000040054321 0.07440000027418137 -0.6446999907493591
          -0.670199990272522 0.007199999876320362 -0.7421000003814697 -0.5823000073432922 0.0007999999797903001 -0.8130000233650208
          -0.6444000005722046 -0.3377000093460083 -0.6861000061035156 -0.2596000134944916 -0.18369999527931213 -0.9480999708175659
          -0.0966000035405159 -0.9842000007629395 -0.148499995470047 -0.4713999927043915 0.06040000170469284 0.879800021648407
          -0.642300009727478 -0.0348999984562397 0.7656999826431274 -0.7480999827384949 -0.03700000047683716 0.6625000238418579
          -0.8676999807357788 -0.0038999998942017555 0.49709999561309814 -0.8543000221252441 -0.03189999982714653 0.5187000036239624
          0.7139000296592712 -0.13770000636577606 -0.6865000128746033 0.20499999821186066 -0.0071000000461936 -0.9786999821662903
          -0.07880000025033951 0.02459999918937683 -0.9965999722480774 -0.32019999623298645 0.016599999740719795 -0.9472000002861023
          0.9679999947547913 -0.23330000042915344 -0.09210000187158585 0.9596999883651733 -0.26330000162124634 -0.09780000150203705
          -0.9140999913215637 0.006599999964237213 0.40540000796318054 -0.902400016784668 -0.023600000888109207 0.4302999973297119
          0.9631999731063843 -0.13259999454021454 0.2337000072002411 0.9535999894142151 -0.15919999778270721 0.25540000200271606
          -0.9100000262260437 -0.010300000198185444 0.41449999809265137 0.9154000282287598 -0.2451000064611435 0.31929999589920044
          0.8440999984741211 -0.5260000228881836 -0.10360000282526016 0.8532000184059143 -0.5126000046730042 0.09650000184774399
          -0.8881999850273132 -0.05460000038146973 0.4560999870300293 0.6254000067710876 -0.6747000217437744 -0.3919999897480011
          -0.8852999806404114 -0.054099999368190765 0.4618000090122223 0.6391000151634216 -0.1307000070810318 -0.7580000162124634
          0.16099999845027924 0.6065999865531921 -0.7785000205039978 -0.25279998779296875 0.4185999929904938 -0.8723000288009644
          -0.40119999647140503 0.7124999761581421 -0.5756999850273132 0.45730000734329224 -0.4505000114440918 -0.7667999863624573
          -0.8819000124931335 -0.033799998462200165 0.4700999855995178 -0.8837000131607056 -0.041600000113248825 0.46630001068115234
          -0.906499981880188 -0.06120000034570694 0.41769999265670776 0.7968000173568726 -0.2752000093460083 -0.5378999710083008
          -0.13809999823570251 -0.22419999539852142 -0.9646999835968018 0.7994999885559082 -0.329800009727478 -0.5019999742507935
          0.9388999938964844 -0.19130000472068787 -0.28630000352859497 0.9937000274658203 0.006500000134110451 -0.11169999837875366
          0.9815999865531921 -0.10899999737739563 -0.15649999678134918 -0.6599000096321106 -0.35040000081062317 0.6646999716758728
          -0.3296000063419342 0.11879999935626984 0.9366000294685364 -0.7710000276565552 0.4050000011920929 0.49140000343322754
          -0.1492999941110611 -0.8062999844551086 0.5723999738693237 0.08569999784231186 -0.45339998602867126 0.8871999979019165
          0.4438000023365021 -0.5985999703407288 0.6668999791145325 -0.9638000130653381 0.01360000018030405 0.266400009393692
          -0.9939000010490417 0.05810000002384186 0.0934000015258789 -0.6725000143051147 0.734499990940094 -0.09099999815225601
          -0.7378000020980835 -0.6615999937057495 0.13379999995231628 0.400299996137619 -0.5745000243186951 0.7139000296592712
          -0.2387000024318695 -0.9398999810218811 0.24410000443458557 -0.09880000352859497 -0.8549000024795532 0.5094000101089478
          -0.3084000051021576 -0.304500013589859 0.901199996471405 -0.2630000114440918 -0.8490999937057495 0.45809999108314514
          -0.36570000648498535 -0.4375999867916107 0.821399986743927 -0.21639999747276306 -0.6122000217437744 0.7605000138282776
          -0.9905999898910522 0.008200000040233135 0.13619999587535858 -0.9890999794006348 0.002199999988079071 0.14730000495910645
          -0.7982000112533569 0.5133000016212463 -0.31529998779296875 -0.6489999890327454 0.4180999994277954 -0.6355999708175659
          -0.900600016117096 -0.1875 -0.3919999897480011 -0.6722999811172485 -0.6355999708175659 -0.37959998846054077
          -0.513700008392334 -0.7728999853134155 -0.3725000023841858 -0.5350000262260437 -0.34290000796318054 0.7720999717712402
          -0.5098999738693237 -0.22120000422000885 0.8313000202178955 -0.8521999716758728 0.031700000166893005 0.5221999883651733
          0.0794999971985817 -0.953499972820282 0.290800005197525 -0.9965999722480774 -0.07479999959468842 0.03480000048875809
          0.9868999719619751 -0.06589999794960022 0.14730000495910645 -0.6450999975204468 0.1737000048160553 -0.7440999746322632
          -0.5264000296592712 -0.3644999861717224 -0.7681000232696533 -0.9193999767303467 0.19679999351501465 0.34049999713897705
          -0.4311000108718872 0.5579000115394592 0.7092000246047974 -0.9965999722480774 0.06989999860525131 -0.04349999874830246
          0.8306000232696533 -0.02019999921321869 0.5565000176429749 0.6468999981880188 0.09560000151395798 0.756600022315979
          -0.654699981212616 0.4375 0.6164000034332275 0.4657000005245209 -0.25619998574256897 0.847100019454956
          0.7285000085830688 -0.20679999887943268 0.6531000137329102 0.6991000175476074 -0.038100000470876694 0.7139999866485596
          0.7003999948501587 -0.17970000207424164 0.6906999945640564 0.9994000196456909 0.032600000500679016 -0.014299999922513962
          -0.0414000004529953 -0.7836999893188477 -0.6197999715805054 0.9714999794960022 0.09440000355243683 0.2176000028848648
          -0.3716000020503998 -0.09799999743700027 -0.9232000112533569 -0.9563999772071838 0.1492999941110611 -0.250900000333786
          0.6589999794960022 -0.08309999853372574 0.7475000023841858 -0.2980000078678131 0.7597000002861023 0.5778999924659729
          0.4230000078678131 0.40610000491142273 0.8101000189781189 -0.861299991607666 -0.006800000090152025 -0.5080000162124634
          -0.6248999834060669 0.056699998676776886 -0.7786999940872192 -0.5511000156402588 0.01140000019222498 -0.8343999981880188
          0.3409999907016754 -0.5595999956130981 -0.7554000020027161 0.047600001096725464 -0.5110999941825867 0.8582000136375427
          -0.7674999833106995 -0.009600000455975533 0.640999972820282 -0.8041999936103821 -0.043800000101327896 0.5927000045776367
          -0.8780999779701233 0.003700000001117587 0.47850000858306885 -0.8112999796867371 -0.08540000021457672 0.5784000158309937
          0.7850000262260437 -0.20350000262260437 -0.585099995136261 0.7936000227928162 -0.4765999913215637 -0.3783000111579895
          0.3790999948978424 -0.25029999017715454 -0.8907999992370605 0.2240999937057495 -0.04270000010728836 -0.9735999703407288
          0.08739999681711197 0.08730000257492065 -0.9922999739646912 -0.20839999616146088 0.227400004863739 -0.951200008392334
          -0.49149999022483826 0.20469999313354492 -0.8464999794960022 -0.8707000017166138 -0.017400000244379044 0.49160000681877136
          -0.8756999969482422 -0.07180000096559525 0.47760000824928284 0.8791999816894531 -0.4740999937057495 -0.04670000076293945
          0.9764000177383423 -0.20749999582767487 -0.05909999832510948 0.8902999758720398 -0.39719998836517334 -0.22280000150203705
          0.8514000177383423 0.05700000002980232 -0.5214999914169312 0.7580999732017517 -0.33340001106262207 -0.5605000257492065
          0.9187999963760376 0.3928999900817871 0.03869999945163727 0.958899974822998 -0.03720000013709068 0.28130000829696655
          0.4668000042438507 0.028699999675154686 -0.883899986743927 0.26510000228881836 0.9624999761581421 -0.05779999867081642
          0.7335000038146973 0.6790000200271606 -0.03229999914765358 0.9993000030517578 -0.036400001496076584 -0.008799999952316284
          0.9424999952316284 -0.27379998564720154 -0.1914999932050705 0.4438000023365021 0.012799999676644802 -0.8960000276565552
          0.8934999704360962 -0.2572999894618988 -0.36809998750686646 -0.9003999829292297 -0.1005999967455864 0.42320001125335693
          0.8109999895095825 -0.35040000081062317 -0.46860000491142273 0.6564000248908997 -0.7096999883651733 -0.25589999556541443
          -0.3255999982357025 0.5526000261306763 -0.767300009727478 0.47029998898506165 -0.052400000393390656 -0.8809999823570251
          -0.9599000215530396 -0.10270000249147415 0.26089999079704285 0.34549999237060547 -0.7376000285148621 -0.5802000164985657
          -0.6121000051498413 -0.5178999900817871 0.597599983215332 -0.4832000136375427 -0.2597000002861023 0.8360999822616577
          -0.742900013923645 0.2599000036716461 0.6169000267982483 -0.9581999778747559 -0.14569999277591705 0.24629999697208405
          0.7300999760627747 -0.3517000079154968 -0.5857999920845032 0.27129998803138733 -0.40700000524520874 -0.8722000122070312
          -0.9028000235557556 -0.1476999968290329 0.40400001406669617 -0.8615999817848206 0.4553000032901764 0.22450000047683716
          -0.45260000228881836 -0.8840000033378601 0.11680000275373459 0.89410001039505 -0.33469998836517334 -0.29750001430511475
          0.24580000340938568 -0.35580000281333923 0.9017000198364258 -0.5394999980926514 0.6722000241279602 0.5070000290870667
          0.6506999731063843 -0.461899995803833 0.6025999784469604 0.9448000192642212 -0.32589998841285706 0.032600000500679016
          -0.6263999938964844 -0.5680000185966492 0.5339000225067139 -0.3068000078201294 0.7253999710083008 0.6161999702453613
          -0.2777000069618225 -0.8998000025749207 -0.33660000562667847 -0.049800001084804535 -0.9688000082969666 -0.24269999563694
          -0.9731000065803528 -0.08330000191926956 0.21459999680519104 0.9027000069618225 -0.38449999690055847 -0.19300000369548798
          0.972100019454956 -0.17239999771118164 -0.1590999960899353 -0.43380001187324524 0.85589998960495 -0.2816999852657318
          0.7680000066757202 -0.28220000863075256 0.574999988079071 0.3573000133037567 0.3734000027179718 0.8561000227928162
          -0.41019999980926514 -0.5770999789237976 0.7062000036239624 0.24979999661445618 -0.250900000333786 0.9351999759674072
          -0.3160000145435333 -0.18170000612735748 0.9312000274658203 0.003700000001117587 -0.052000001072883606 0.9986000061035156
          -0.09279999881982803 0.0625 0.9937000274658203 0.5049999952316284 -0.8532000184059143 -0.1306000053882599
          -0.9866999983787537 -0.07450000196695328 0.14419999718666077 0.9973999857902527 -0.07029999792575836 -0.012500000186264515
          0.9402999877929688 -0.2651999890804291 -0.21330000460147858 -0.4327000081539154 0.7192000150680542 -0.5436000227928162
          -0.8567000031471252 -0.36660000681877136 -0.3628000020980835 -0.9330000281333923 -0.3409000039100647 0.11580000072717667
          -0.798799991607666 -0.40689998865127563 0.4431000053882599 -0.7738000154495239 -0.0835999995470047 0.6279000043869019
          0.35040000081062317 -0.928600013256073 0.12210000306367874 -0.9821000099182129 -0.08160000294446945 0.1696999967098236
          0.9879999756813049 -0.08429999649524689 0.12970000505447388 -0.7398999929428101 0.21400000154972076 -0.6377999782562256
          -0.8962000012397766 -0.13850000500679016 -0.4214000105857849 -0.998199999332428 -0.05689999833703041 0.019999999552965164
          0.9757999777793884 -0.1347000002861023 0.1720000058412552 0.8795999884605408 -0.08699999749660492 0.46779999136924744
          0.8037999868392944 -0.11670000106096268 0.5834000110626221 -0.8123000264167786 -0.17640000581741333 -0.555899977684021
          -0.8598999977111816 0.08179999887943268 -0.5038999915122986 -0.8743000030517578 0.4171999990940094 -0.24819999933242798
          -0.4950000047683716 -0.6771000027656555 -0.5444999933242798 -0.18279999494552612 -0.8802000284194946 -0.43799999356269836
          0.09449999779462814 -0.9907000064849854 -0.09790000319480896 -0.9921000003814697 0.03790000081062317 0.11990000307559967
          -0.9933000206947327 -0.02239999920129776 -0.11299999803304672 -0.9883000254631042 -0.15070000290870667 0.022299999371170998
          0.4844000041484833 -0.06639999896287918 0.8723000288009644 0.43639999628067017 0.15209999680519104 0.8867999911308289
          0.18649999797344208 0.026599999517202377 0.9821000099182129 0.3783000111579895 0.009100000374019146 0.925599992275238
          0.6855000257492065 -0.3447999954223633 0.6412000060081482 0.5770999789237976 -0.7559000253677368 0.3089999854564667
          -0.5127999782562256 0.2824999988079071 -0.810699999332428 0.569599986076355 0.7694000005722046 -0.2890999913215637
          0.7452999949455261 0.651199996471405 0.1429000049829483 -0.9959999918937683 0.03709999844431877 -0.08160000294446945
          0.43799999356269836 0.18790000677108765 0.8791000247001648 0.357699990272522 0.03290000185370445 0.9333000183105469
          0.19930000603199005 0.2865999937057495 0.9370999932289124 0.2766000032424927 0.2754000127315521 0.9207000136375427
          0.16279999911785126 0.08619999885559082 0.9829000234603882 -0.9700000286102295 -0.08720000088214874 -0.22679999470710754
          -0.8338000178337097 -0.06509999930858612 -0.5482000112533569 -0.8429999947547913 -0.09390000253915787 -0.5296000242233276
          -0.6725999712944031 -0.041600000113248825 -0.7387999892234802 -0.04450000077486038 -0.03620000183582306 -0.9983999729156494
          0.03229999914765358 -0.06379999965429306 0.9973999857902527 -0.49149999022483826 0.05719999969005585 0.8690000176429749
          0.18850000202655792 -0.14069999754428864 -0.9718999862670898 0.046300001442432404 0.1290999948978424 -0.9905999898910522
          -0.02250000089406967 0.25619998574256897 -0.9664000272750854 -0.18979999423027039 0.507099986076355 -0.8406999707221985
          -0.45669999718666077 0.6003000140190125 -0.6565999984741211 0.6917999982833862 -0.5931000113487244 -0.41179999709129333
          0.19030000269412994 -0.30559998750686646 -0.9330000281333923 -0.7768999934196472 0.5325000286102295 -0.335999995470047
          -0.8483999967575073 -0.07800000160932541 0.5235999822616577 0.8083000183105469 -0.5457000136375427 -0.22100000083446503
          0.8508999943733215 -0.4805000126361847 -0.21230000257492065 -0.6801000237464905 0.04820000007748604 -0.7315000295639038
          -0.3174999952316284 -0.0851999968290329 -0.9444000124931335 -0.19930000603199005 0.526199996471405 -0.82669997215271
          -0.8733999729156494 -0.061500001698732376 0.4830999970436096 0.807699978351593 -0.20559999346733093 -0.5525000095367432
          0.6761000156402588 -0.23199999332427979 -0.699400007724762 0.8723000288009644 0.0851999968290329 -0.48159998655319214
          0.8215000033378601 -0.3488999903202057 -0.45100000500679016 0.4325999915599823 -0.19550000131130219 -0.8801000118255615
          0.3686000108718872 0.15559999644756317 -0.9164999723434448 0.875 0.2484000027179718 -0.4156000018119812
          0.3174000084400177 0.2712000012397766 -0.9086999893188477 0.7404000163078308 0.384799987077713 -0.5509999990463257
          0.6086999773979187 0.14069999754428864 -0.7807999849319458 0.45320001244544983 0.13619999587535858 -0.8809999823570251
          0.5442000031471252 0.0851999968290329 -0.8345999717712402 -0.8831999897956848 -0.11150000244379044 0.45559999346733093
          0.9990000128746033 0.02979999966919422 -0.03420000150799751 0.894599974155426 0.08219999819993973 0.4392000138759613
          0.9750999808311462 -0.21979999542236328 0.028200000524520874 0.5422000288963318 0.796500027179718 -0.26759999990463257
          0.6888999938964844 -0.6155999898910522 0.38260000944137573 0.35339999198913574 -0.9308000206947327 -0.0934000015258789
          0.6166999936103821 -0.7462000250816345 0.2508000135421753 -0.1876000016927719 -0.04270000010728836 0.9812999963760376
          -0.4147000014781952 0.272599995136261 0.8682000041007996 -0.12460000067949295 -0.718999981880188 0.6837000250816345
          0.07760000228881836 -0.5996999740600586 0.796500027179718 0.04659999907016754 -0.8450000286102295 -0.5327000021934509
          0.19900000095367432 -0.9390000104904175 -0.28060001134872437 -0.9143000245094299 -0.12849999964237213 0.38420000672340393
          0.6438999772071838 -0.3598000109195709 -0.6753000020980835 0.6614999771118164 -0.014800000004470348 -0.7498000264167786
          0.18160000443458557 -0.17419999837875366 -0.9678000211715698 -0.3813999891281128 -0.15150000154972076 -0.911899983882904
          -0.18369999527931213 -0.6764000058174133 -0.7131999731063843 -0.09529999643564224 -0.17299999296665192 0.9803000092506409
          0.5386999845504761 0.42419999837875366 0.7279000282287598 -0.5645999908447266 0.6764000058174133 0.4729999899864197
          0.705299973487854 -0.6754999756813049 0.21529999375343323 -0.8774999976158142 0.4401000142097473 0.19059999287128448
          -0.8925999999046326 0.4097999930381775 0.18809999525547028 -0.9373999834060669 -0.08550000190734863 0.3375999927520752
          0.8629000186920166 -0.41370001435279846 -0.29010000824928284 0.9578999876976013 -0.07980000227689743 -0.27559998631477356
          -0.39649999141693115 0.9138000011444092 -0.08780000358819962 0.7752000093460083 -0.589900016784668 -0.22589999437332153
          -0.7965999841690063 0.45579999685287476 -0.3971000015735626 -0.5511000156402588 0.7014999985694885 -0.45190000534057617
          0.06669999659061432 -0.6654000282287598 -0.7434999942779541 -0.4025999903678894 -0.6916000247001648 -0.5996999740600586
          -0.9754999876022339 -0.11110000312328339 0.19009999930858612 -0.9763000011444092 0.019600000232458115 0.21570000052452087
          0.9672999978065491 0.21879999339580536 -0.12849999964237213 0.9747999906539917 -0.12290000170469284 -0.18619999289512634
          0.8436999917030334 0.1542000025510788 -0.51419997215271 0.6534000039100647 0.5569999814033508 -0.5126000046730042
          0.7696999907493591 0.5590000152587891 -0.3082999885082245 0.5425999760627747 0.6881999969482422 -0.48159998655319214
          0.862500011920929 -0.3637999892234802 -0.35179999470710754 0.3917999863624573 0.43709999322891235 -0.8095999956130981
          0.2533999979496002 0.8252000212669373 -0.5048999786376953 0.8269000053405762 0.5019999742507935 0.2535000145435333
          0.24500000476837158 -0.02969999983906746 0.9690999984741211 0.15119999647140503 -0.10379999876022339 0.9829999804496765
          0.2599000036716461 -0.008500000461935997 0.9656000137329102 0.47429999709129333 0.08479999750852585 0.8762000203132629