<?xml version="1.0"?>
<VTKFile type="PolyData" version="0.1" byte_order="LittleEndian" header_type="UInt32" compressor="vtkZLibDataCompressor">
  <PolyData>
    <FieldData>
      <Array type="String" Name="MaterialNames" NumberOfTuples="1" format="ascii">
        109 97 116 101 114 105 97 108 95 48 0
      </Array>
      <Array type="String" Name="MaterialLibraries" NumberOfTuples="1" format="ascii">
        109 97 116 101 114 105 97 108 46 109 116 108 0
      </Array>
    </FieldData>
    <Piece NumberOfPoints="19475" NumberOfVerts="0" NumberOfLines="0" NumberOfStrips="0" NumberOfPolys="39087">
      <PointData Normals="Normals">
        <DataArray type="Float32" Name="Normals" NumberOfComponents="3" format="ascii" RangeMin="0.9999231178110808" RangeMax="1.0000746479849612">
          0.7038000226020813 -0.6909000277519226 -0.16539999842643738 0.6689000129699707 -0.6492999792098999 -0.3619999885559082
          0.9433000087738037 -0.3296999931335449 -0.03959999978542328 0.40130001306533813 -0.9075999855995178 -0.12330000102519989
          0.3628000020980835 -0.7641000151634216 -0.5333999991416931 0.12449999898672104 -0.9631999731063843 -0.23839999735355377
          0.8395000100135803 -0.5349000096321106 0.09560000151395798 0.8651999831199646 -0.4311000108718872 0.25589999556541443
          0.5249000191688538 -0.8411999940872192 0.1298999935388565 0.16529999673366547 -0.9837999939918518 0.0689999982714653
          0.5662000179290771 -0.7965999841690063 0.2117999941110611 0.8460999727249146 -0.37290000915527344 0.38089999556541443
          0.21709999442100525 -0.9659000039100647 0.14090000092983246 0.4375999867916107 -0.8255000114440918 0.3564000129699707
          0.5738999843597412 -0.7720999717712402 -0.27300000190734863 0.7488999962806702 -0.6298999786376953 -0.20600000023841858
          0.9452000260353088 -0.2922999858856201 -0.14550000429153442 0.3506999909877777 -0.9089000225067139 -0.225600004196167
          0.9994999766349792 -0.03200000151991844 0.006899999920278788 0.34290000796318054 -0.792900025844574 -0.5037999749183655
          0.053700000047683716 -0.9908999800682068 -0.12300000339746475 0.18240000307559967 -0.9210000038146973 -0.3441999852657318
          0.09030000120401382 -0.9758999943733215 -0.19869999587535858 0.944599986076355 -0.23829999566078186 0.225600004196167
          0.9721999764442444 -0.0617000013589859 0.2257000058889389 0.08269999921321869 -0.9944000244140625 0.06650000065565109
          0.17489999532699585 -0.984499990940094 0.014499999582767487 0.9215999841690063 -0.1574999988079071 0.3546999990940094
          0.9117000102996826 -0.06920000165700912 0.4050999879837036 0.1695999950170517 -0.9794999957084656 0.10840000212192535
          0.5742999911308289 -0.7170000076293945 0.39500001072883606 0.8403000235557556 -0.1518000066280365 0.5203999876976013
          0.319599986076355 -0.9448999762535095 0.0706000030040741 0.16249999403953552 -0.986299991607666 -0.027400000020861626
          0.7689999938011169 -0.3424000144004822 0.5397999882698059 0.7455000281333923 -0.33709999918937683 0.5748999714851379
          0.5866000056266785 -0.7391999959945679 0.33090001344680786 0.20389999449253082 -0.9660999774932861 -0.1581999957561493
          0.37860000133514404 -0.9254999756813049 -0.006500000134110451 0.26030001044273376 -0.9552000164985657 -0.14079999923706055
          0.7217000126838684 -0.34790000319480896 0.5983999967575073 0.6833000183105469 -0.30090001225471497 0.6653000116348267
          0.6115999817848206 -0.7060999870300293 0.3569999933242798 0.22100000083446503 -0.9578999876976013 -0.18310000002384186
          0.45750001072883606 -0.8802000284194946 0.125900000333786 0.6291999816894531 -0.3059000074863434 0.7145000100135803
          0.6036999821662903 -0.39259999990463257 0.6937999725341797 0.23119999468326569 -0.9674999713897705 -0.10220000147819519
          0.43959999084472656 -0.8432999849319458 0.3093000054359436 0.1388999968767166 -0.9878000020980835 0.07020000368356705
          0.5216000080108643 -0.30709999799728394 0.7960000038146973 0.21379999816417694 -0.6510000228881836 0.7283999919891357
          0.6600000262260437 -0.7182000279426575 -0.22030000388622284 0.6973999738693237 -0.545799970626831 -0.4643999934196472
          0.9298999905586243 -0.29190000891685486 -0.22390000522136688 0.40630000829696655 -0.896399974822998 -0.1768999993801117
          0.4449999928474426 -0.7429999709129333 -0.4999000132083893 0.1688999980688095 -0.9728999733924866 -0.15800000727176666
          0.26600000262260437 -0.8047000169754028 -0.5307000279426575 0.7498000264167786 -0.6496999859809875 0.12530000507831573
          0.9793999791145325 -0.15839999914169312 0.12530000507831573 0.44130000472068787 -0.8948000073432922 0.06710000336170197
          0.24060000479221344 -0.9692000150680542 0.05180000141263008 0.7926999926567078 -0.5199000239372253 0.3183000087738037
          0.9178000092506409 -0.12880000472068787 0.37549999356269836 0.5333999991416931 -0.8288000226020813 0.1687999963760376
          0.8593999743461609 -0.2646999955177307 0.4374000132083893 0.9039000272750854 -0.2856000065803528 0.31850001215934753
          0.7228000164031982 -0.6424999833106995 0.25450000166893005 0.4296000003814697 -0.902999997138977 0.003700000001117587
          0.1363999992609024 -0.9904000163078308 -0.021199999377131462 0.050599999725818634 -0.9980999827384949 0.03629999980330467
          0.7560999989509583 -0.6341000199317932 0.16210000216960907 0.7799000144004822 -0.6244000196456909 -0.04320000112056732
          0.22130000591278076 -0.9747999906539917 -0.02979999966919422 0.7080000042915344 -0.7031000256538391 -0.06639999896287918
          0.9009000062942505 -0.4244999885559082 -0.09059999883174896 0.949999988079071 -0.30140000581741333 -0.08150000125169754
          0.4562000036239624 -0.8899000287055969 -0.00279999990016222 0.21060000360012054 -0.9726999998092651 -0.09780000150203705
          0.2676999866962433 -0.9621999859809875 -0.04989999905228615 0.12860000133514404 -0.9840999841690063 -0.12229999899864197
          0.6735000014305115 -0.7264000177383423 -0.1370999962091446 0.9842000007629395 -0.15160000324249268 -0.09149999916553497
          0.43619999289512634 -0.8998000025749207 -0.012900000438094139 0.09480000287294388 -0.9955000281333923 -0.0017000000225380063
          0.9976000189781189 -0.035599999129772186 -0.05999999865889549 0.3840999901294708 -0.9013000130653381 -0.20029999315738678
          0.29910001158714294 -0.9455999732017517 -0.12809999287128448 0.09950000047683716 -0.9872999787330627 -0.12380000203847885
          0.992900013923645 0.08640000224113464 0.08219999819993973 0.24709999561309814 -0.9569000005722046 -0.1525000035762787
          0.15299999713897705 -0.9409999847412109 -0.3018999993801117 0.13750000298023224 -0.9783999919891357 -0.1543000042438507
          0.2087000012397766 -0.9192000031471252 -0.33379998803138733 -0.20010000467300415 -0.9308000206947327 -0.3059999942779541
          0.9742000102996826 0.09989999979734421 0.20260000228881836 0.18070000410079956 -0.9835000038146973 -0.006800000090152025
          -0.06369999796152115 -0.9871000051498413 -0.1469999998807907 0.9154000282287598 -0.07739999890327454 0.3950999975204468
          0.9161999821662903 0.037300001829862595 0.39899998903274536 0.241799995303154 -0.9700999855995178 -0.02070000022649765
          0.21739999949932098 -0.9758999943733215 0.019200000911951065 0.09440000355243683 -0.9950000047683716 -0.03229999914765358
          0.8648999929428101 -0.010599999688565731 0.501800000667572 0.8348000049591064 0.06469999998807907 0.5467000007629395
          0.25290000438690186 -0.9649999737739563 -0.06949999928474426 0.18719999492168427 -0.9760000109672546 -0.1111999973654747
          0.7806000113487244 0.0044999998062849045 0.625 0.23909999430179596 -0.9595999717712402 -0.14810000360012054
          0.188400000333786 -0.9696999788284302 -0.15549999475479126 0.6488999724388123 -0.0008999999845400453 0.7609000205993652
          0.7125999927520752 -0.013299999758601189 0.7014999985694885 0.5835999846458435 0.03709999844431877 0.8112000226974487
          0.22390000522136688 -0.9661999940872192 -0.12800000607967377 0.17970000207424164 -0.9814000129699707 -0.06700000166893005
          0.1551000028848648 -0.987500011920929 -0.028300000354647636 0.4961000084877014 0.03229999914765358 0.8676000237464905
          0.42410001158714294 0.05810000002384186 0.9036999940872192 0.09130000323057175 -0.983299970626831 0.15719999372959137
          0.08550000190734863 -0.9771000146865845 0.19499999284744263 0.3677999973297119 0.09099999815225601 0.9254000186920166
          0.16110000014305115 -0.0364999994635582 0.986299991607666 0.03929999843239784 -0.6481999754905701 0.7605000138282776
          0.7828999757766724 -0.4074999988079071 -0.4702000021934509 0.39469999074935913 -0.798799991607666 -0.45410001277923584
          0.4180999994277954 -0.6312999725341797 -0.6531000137329102 0.6877999901771545 -0.29030001163482666 -0.6653000116348267
          0.20990000665187836 -0.8679999709129333 -0.44999998807907104 0.9783999919891357 0.015599999576807022 -0.20600000023841858
          0.22849999368190765 -0.7498000264167786 -0.6208999752998352 0.15440000593662262 -0.8740000128746033 -0.4607999920845032
          0.17329999804496765 -0.970300018787384 -0.16899999976158142 0.9872000217437744 0.12120000272989273 0.10329999774694443
          0.06629999727010727 -0.9968000054359436 0.04399999976158142 0.9110000133514404 0.08330000191926956 0.40389999747276306
          0.8662999868392944 0.06260000169277191 0.49559998512268066 0.9333999752998352 0.093299999833107 0.3463999927043915
          0.0494999997317791 -0.9948999881744385 -0.08739999681711197 0.9089999794960022 -0.39800000190734863 0.12380000203847885
          0.9937999844551086 -0.08349999785423279 0.07339999824762344 0.1615999937057495 -0.9763000011444092 -0.14380000531673431
          0.9991000294685364 0.018799999728798866 -0.03869999945163727 0.1835000067949295 -0.9824000000953674 -0.035999998450279236
          0.10279999673366547 -0.9923999905586243 -0.06759999692440033 0.06480000168085098 -0.9664000272750854 -0.24869999289512634
          0.9976999759674072 0.05400000140070915 -0.041999999433755875 0.16850000619888306 -0.9857000112533569 -0.00860000029206276
          0.06629999727010727 -0.9977999925613403 0.008100000210106373 -0.5238000154495239 -0.8485999703407288 0.07360000163316727
          -0.32670000195503235 -0.9449999928474426 -0.015200000256299973 0.19140000641345978 -0.9563999772071838 -0.22050000727176666
          0.02019999921321869 -0.972000002861023 -0.23430000245571136 -0.6815999746322632 -0.684499979019165 -0.2587999999523163
          0.9991000294685364 -0.04039999842643738 0.014000000432133675 0.9940000176429749 -0.10599999874830246 -0.02669999934732914
          0.9889000058174133 -0.12120000272989273 0.08649999648332596 -0.5555999875068665 -0.6851999759674072 -0.47099998593330383
          0.9821000099182129 -0.012500000186264515 0.1881999969482422 0.9587000012397766 0.10360000282526016 0.26510000228881836
          -0.2976999878883362 -0.7857000231742859 -0.5422999858856201 0.07270000129938126 -0.973800003528595 -0.21549999713897705
          -0.19699999690055847 -0.7272999882698059 -0.6575000286102295 0.9111999869346619 0.16599999368190765 0.37700000405311584
          0.2150000035762787 -0.9750000238418579 -0.057100001722574234 -0.0348999984562397 -0.8331999778747559 -0.5519000291824341
          0.20280000567436218 -0.9706000089645386 -0.12960000336170197 0.031199999153614044 -0.9815000295639038 -0.18889999389648438
          0.8355000019073486 0.07509999722242355 0.5443000197410583 0.8429999947547913 0.0778999999165535 0.5322999954223633
          0.1737000048160553 -0.9787999987602234 -0.1088000014424324 0.8083999752998352 0.07919999957084656 0.583299994468689
          0.7641000151634216 0.10450000315904617 0.6366000175476074 0.1363999992609024 -0.9779000282287598 -0.15860000252723694
          0.6937999725341797 0.10050000250339508 0.7131999731063843 0.5863999724388123 0.09359999746084213 0.8046000003814697
          0.16369999945163727 -0.9825000166893005 -0.08839999884366989 0.13699999451637268 -0.9713000059127808 -0.19419999420642853
          0.5090000033378601 0.07169999927282333 0.8578000068664551 0.4528999924659729 0.09619999676942825 0.8863999843597412
          0.36800000071525574 0.10010000318288803 0.9243999719619751 0.1420000046491623 -0.9323999881744385 0.33239999413490295
          0.1412999927997589 -0.9864000082015991 -0.08460000157356262 0.2387000024318695 -0.9322999715805054 0.271699994802475
          0.08749999850988388 -0.9916999936103821 0.09380000084638596 0.27230000495910645 0.12269999831914902 0.9544000029563904
          0.12449999898672104 0.13729999959468842 0.982699990272522 0.000699999975040555 -0.03370000049471855 0.9994000196456909
          0.05220000073313713 -0.45579999685287476 0.8885999917984009 0.0568000003695488 -0.6873000264167786 0.7240999937057495
          0.597599983215332 -0.03830000013113022 -0.8008999824523926 0.8925999999046326 0.01140000019222498 -0.45080000162124634
          0.30379998683929443 -0.24570000171661377 -0.9204999804496765 0.2703999876976013 -0.8370000123977661 -0.4758000075817108
          0.20100000500679016 -0.6122999787330627 -0.7646999955177307 0.22990000247955322 -0.8641999959945679 -0.44760000705718994
          0.18209999799728394 -0.7419000267982483 -0.6452999711036682 0.08990000188350677 -0.8989999890327454 -0.428600013256073
          0.9847000241279602 0.10260000079870224 -0.14059999585151672 0.14480000734329224 -0.8748000264167786 -0.46230000257492065
          0.14259999990463257 -0.9776999950408936 -0.15410000085830688 0.19110000133514404 -0.8277999758720398 -0.5274999737739563
          0.9801999926567078 0.13490000367164612 0.14470000565052032 0.17739999294281006 -0.9815999865531921 0.07129999995231628
          0.1923999935388565 -0.9789999723434448 0.06809999793767929 0.8884000182151794 0.1551000028848648 0.4320000112056732
          0.16519999504089355 -0.9854999780654907 0.03970000147819519 0.19769999384880066 -0.9768000245094299 0.08269999921321869
          0.06949999928474426 -0.9925000071525574 0.10050000250339508 0.8715999722480774 0.07909999787807465 0.4837999939918518
          0.9688000082969666 0.05999999865889549 0.24040000140666962 0.13120000064373016 -0.9824000000953674 -0.13300000131130219
          0.15780000388622284 -0.9869999885559082 -0.03060000017285347 -0.06870000064373016 -0.9937999844551086 0.0877000018954277
          0.9997000098228455 0.023499999195337296 0.003000000026077032 0.0706000030040741 -0.98089998960495 -0.1809999942779541
          -0.4629000127315521 -0.8858000040054321 -0.03290000185370445 0.9968000054359436 -0.0575999990105629 -0.0551999993622303
          -0.8751999735832214 -0.4487999975681305 0.18060000240802765 0.9883999824523926 -0.11209999769926071 -0.10279999673366547
          0.983299970626831 -0.15230000019073486 -0.09960000216960907 -0.9750000238418579 -0.20819999277591705 0.07729999721050262
          0.9976000189781189 -0.05609999969601631 -0.04019999876618385 -0.9695000052452087 -0.2313999980688095 -0.08079999685287476
          -0.9807999730110168 -0.12950000166893005 -0.14569999277591705 0.9975000023841858 0.0007999999797903001 0.07020000368356705
          -0.9266999959945679 -0.19059999287128448 -0.3239000141620636 -0.8285999894142151 -0.16930000483989716 -0.5335999727249146
          0.9625999927520752 -0.04619999974966049 0.2671000063419342 0.9577000141143799 -0.028699999675154686 0.28619998693466187
          -0.5781999826431274 -0.26429998874664307 -0.7718999981880188 -0.2402999997138977 -0.3059000074863434 -0.9211999773979187
          0.9182999730110168 -0.024399999529123306 0.3950999975204468 0.8949999809265137 0.08990000188350677 0.43689998984336853
          0.01730000041425228 -0.984000027179718 -0.17749999463558197 0.008999999612569809 -0.7664999961853027 -0.6421999931335449
          0.06880000233650208 -0.9671000242233276 -0.24490000307559967 0.8276000022888184 0.11219999939203262 0.550000011920929
          0.07680000364780426 -0.9801999926567078 -0.18219999969005585 0.7921000123023987 0.07450000196695328 0.6057999730110168
          0.7462000250816345 0.09319999814033508 0.6590999960899353 0.16840000450611115 -0.9650999903678894 -0.20059999823570251
          0.20919999480247498 -0.9624000191688538 -0.17309999465942383 0.6312000155448914 0.1379999965429306 0.7633000016212463
          0.2167000025510788 -0.972100019454956 -0.09030000120401382 0.1128000020980835 -0.9674000144004822 -0.22679999470710754
          0.5022000074386597 0.14000000059604645 0.8532999753952026 0.4332999885082245 0.09759999811649323 0.8960000276565552
          0.37549999356269836 0.06939999759197235 0.9241999983787537 0.17389999330043793 -0.9623000025749207 0.2092999964952469
          0.10580000281333923 -0.9905999898910522 -0.08649999648332596 0.20640000700950623 -0.9409999847412109 0.26809999346733093
          -0.11100000143051147 -0.9718000292778015 0.2079000025987625 0.23669999837875366 0.08030000329017639 0.9682000279426575
          0.093299999833107 0.1023000031709671 0.9904000163078308 -0.004600000102072954 0.10909999907016754 0.9940000176429749
          -0.07609999924898148 0.06379999965429306 0.9951000213623047 -0.08980000019073486 -0.11299999803304672 0.9894999861717224
          -0.02710000053048134 -0.5192000269889832 0.854200005531311 -0.13519999384880066 -0.6147000193595886 0.7771000266075134
          0.548799991607666 -0.026499999687075615 -0.8355000019073486 0.8684999942779541 0.049800001084804535 -0.49309998750686646
          0.21170000731945038 -0.08089999854564667 -0.9739999771118164 0.08609999716281891 -0.17649999260902405 -0.9804999828338623
          0.10339999943971634 -0.325300008058548 -0.9398999810218811 0.06289999932050705 -0.8913000226020813 -0.4490000009536743
          0.09430000185966492 -0.7196000218391418 -0.6879000067710876 0.10779999941587448 -0.8899000287055969 -0.4433000087738037
          0.9747999906539917 -0.04749999940395355 -0.21789999306201935 0.9362999796867371 -0.02459999918937683 -0.35030001401901245
          0.9760000109672546 -0.07940000295639038 -0.20270000398159027 0.16660000383853912 -0.7723000049591064 -0.613099992275238
          0.16019999980926514 -0.8787000179290771 -0.4496000111103058 0.19670000672340393 -0.9682000279426575 -0.15479999780654907
          0.9966999888420105 -0.0714000016450882 0.039400000125169754 0.9929999709129333 -0.04740000143647194 0.10830000042915344
          0.07079999893903732 -0.9937999844551086 0.08569999784231186 0.9373999834060669 -0.003800000064074993 0.3483000099658966
          0.9266999959945679 -0.03840000182390213 0.37389999628067017 0.04969999939203262 -0.9879000186920166 0.14720000326633453
          0.9039999842643738 -0.03240000084042549 0.42640000581741333 0.9440000057220459 -0.05339999869465828 0.3255999982357025
          0.9611999988555908 -0.04800000041723251 0.27160000801086426 -0.053599998354911804 -0.9447000026702881 0.3237000107765198
          0.9922999739646912 -0.09640000015497208 0.07779999822378159 0.9973000288009644 -0.061400000005960464 0.03959999978542328
          -0.8062999844551086 -0.46810001134872437 0.36169999837875366 -0.34689998626708984 -0.5493999719619751 0.7601000070571899
          0.9972000122070312 -0.03310000151395798 -0.06689999997615814 -0.9674000144004822 -0.01209999993443489 0.2529999911785126
          0.9966999888420105 -0.015200000256299973 -0.07930000126361847 -0.9958000183105469 0.009999999776482582 0.09149999916553497
          -0.98089998960495 -0.05460000038146973 -0.1867000013589859 0.9921000003814697 0.024700000882148743 0.12319999933242798
          -0.8866999745368958 -0.08810000121593475 -0.45399999618530273 0.9563999772071838 0.02710000053048134 0.29089999198913574
          -0.7554000020027161 -0.09529999643564224 -0.6482999920845032 -0.5648999810218811 -0.08129999786615372 -0.8210999965667725
          -0.4131999909877777 -0.08169999718666077 -0.9070000052452087 0.8980000019073486 -0.05609999969601631 0.43630000948905945
          0.8952999711036682 -0.019700000062584877 0.44510000944137573 -0.07880000025033951 -0.08969999849796295 -0.9927999973297119
          0.04610000178217888 -0.27410000562667847 -0.9606000185012817 0.24860000610351562 -0.9448999762535095 -0.21289999783039093
          0.19979999959468842 -0.676800012588501 -0.7085999846458435 0.23350000381469727 -0.957099974155426 -0.17170000076293945
          0.18469999730587006 -0.8226000070571899 -0.5376999974250793 0.22040000557899475 -0.9291999936103821 -0.29679998755455017
          0.8568999767303467 -0.03779999911785126 0.5141000151634216 0.8454999923706055 0.05820000171661377 0.5307999849319458
          0.2524999976158142 -0.9589999914169312 -0.12880000472068787 0.2078000009059906 -0.9671000242233276 -0.1467999964952469
          0.22280000150203705 -0.9639999866485596 -0.14489999413490295 0.12099999934434891 -0.9625999927520752 -0.24220000207424164
          0.6672999858856201 0.10610000044107437 0.7372000217437744 0.5706999897956848 0.0982000008225441 0.8152999877929688
          0.1485999971628189 -0.9857000112533569 -0.07909999787807465 0.10029999911785126 -0.9764000177383423 -0.19140000641345978
          0.16680000722408295 -0.9819999933242798 0.08900000154972076 -0.0012000000569969416 -0.9987000226974487 0.05180000141263008
          0.4796999990940094 0.1185000017285347 0.8694000244140625 0.41659998893737793 0.1054999977350235 0.902899980545044
          0.3961000144481659 0.13809999823570251 0.907800018787384 -0.19009999930858612 -0.7670999765396118 0.6128000020980835
          -0.4586000144481659 -0.4106999933719635 0.7879999876022339 0.2985999882221222 0.10760000348091125 0.9483000040054321
          0.14470000565052032 0.1145000010728836 0.9828000068664551 0.053700000047683716 0.08820000290870667 0.994700014591217
          -0.041099999099969864 0.08290000259876251 0.9957000017166138 -0.1737000048160553 0.04769999906420708 0.9836000204086304
          -0.25870001316070557 -0.020500000566244125 0.9656999707221985 -0.35010001063346863 -0.014499999582767487 0.9366000294685364
          0.23430000245571136 -0.8844000101089478 -0.40369999408721924 0.23929999768733978 -0.5303000211715698 -0.8133000135421753
          0.429500013589859 -0.6290000081062317 -0.6478999853134155 0.8179000020027161 0.007600000128149986 -0.5752999782562256
          0.7177000045776367 -0.0272000003606081 -0.6958000063896179 0.8899000287055969 -0.04010000079870224 -0.4544000029563904
          0.364300012588501 -0.07129999995231628 -0.9284999966621399 0.11949999630451202 -0.07980000227689743 -0.9896000027656555
          0.03739999979734421 -0.056299999356269836 -0.9976999759674072 0.09099999815225601 -0.08919999748468399 -0.9919000267982483
          0.13289999961853027 -0.26570001244544983 -0.9549000263214111 0.29109999537467957 -0.8532999753952026 -0.4325999915599823
          0.2498999983072281 -0.625 -0.7394999861717224 0.1996999979019165 -0.9168000221252441 -0.3456999957561493
          0.9775999784469604 0.022700000554323196 -0.20909999310970306 0.18950000405311584 -0.906499981880188 -0.37720000743865967
          0.20990000665187836 -0.9677000045776367 -0.13979999721050262 0.20739999413490295 -0.9010000228881836 -0.38100001215934753
          0.12790000438690186 -0.9643999934196472 -0.2312999963760376 0.9926999807357788 0.07100000232458115 0.09709999710321426
          0.21320000290870667 -0.9704999923706055 0.11230000108480453 0.24809999763965607 -0.9653000235557556 0.08169999718666077
          0.2287999987602234 -0.9726999998092651 0.03889999911189079 0.9257000088691711 -0.02459999918937683 0.3774000108242035
          0.2151000052690506 -0.958299994468689 0.18799999356269836 0.24040000140666962 -0.9575999975204468 0.15880000591278076
          0.8937000036239624 0.0066999997943639755 0.4487000107765198 0.9672999978065491 0.09030000120401382 0.23690000176429749
          0.16539999842643738 -0.9068999886512756 0.3874000012874603 0.2847000062465668 -0.9086999893188477 0.3052999973297119
          0.22269999980926514 -0.9036999940872192 0.36570000648498535 0.9952999949455261 0.09640000015497208 0.010999999940395355
          -0.8557999730110168 -0.016599999740719795 0.5170000195503235 -0.9121999740600586 0.026499999687075615 0.4090000092983246
          -0.6621000170707703 0.006899999920278788 0.7493000030517578 -0.1923999935388565 -0.05719999969005585 0.9797000288963318
          0.15160000324249268 -0.49239999055862427 0.8569999933242798 0.10239999741315842 -0.7164999842643738 0.6899999976158142
          0.9954000115394592 0.04500000178813934 -0.08410000056028366 -0.9679999947547913 0.023900000378489494 0.24969999492168427
          0.9891999959945679 -0.08590000122785568 -0.11829999834299088 -0.9976999759674072 0.05590000003576279 0.039500001817941666
          0.9921000003814697 -0.1088000014424324 -0.06279999762773514 0.9915000200271606 -0.11720000207424164 -0.05739999935030937
          -0.9528999924659729 0.0038999998942017555 -0.30320000648498535 0.9925000071525574 -0.09920000284910202 0.07100000232458115
          0.9926999807357788 -0.06710000336170197 0.1006999984383583 -0.817799985408783 -0.0794999971985817 -0.5699999928474426
          0.9681000113487244 -0.10209999978542328 0.2287999987602234 0.9401000142097473 -0.03869999945163727 0.3386000096797943
          -0.6711999773979187 -0.09350000321865082 -0.7353000044822693 -0.44179999828338623 -0.11500000208616257 -0.8896999955177307
          0.47130000591278076 -0.8259999752044678 -0.3091999888420105 0.5270000100135803 -0.47859999537467957 -0.7023000121116638
          0.5285999774932861 -0.5631999969482422 -0.6351000070571899 0.3174000084400177 -0.9383000135421753 -0.13689999282360077
          0.352400004863739 -0.7533000111579895 -0.5552999973297119 0.22370000183582306 -0.930899977684021 -0.28859999775886536
          0.9115999937057495 -0.03269999846816063 0.4097000062465668 0.906000018119812 0.08370000123977661 0.414900004863739
          -0.19599999487400055 -0.09910000115633011 -0.975600004196167 0.0020000000949949026 -0.09049999713897705 -0.9958999752998352
          0.10760000348091125 -0.1143999993801117 -0.9876000285148621 0.163100004196167 -0.2290000021457672 -0.9596999883651733
          0.3393000066280365 -0.4819999933242798 -0.8077999949455261 0.30410000681877136 -0.9462000131607056 -0.11050000041723251
          0.25769999623298645 -0.9657999873161316 -0.02810000069439411 0.11190000176429749 -0.9937000274658203 -0.0035000001080334187
          0.830299973487854 -0.031599998474121094 0.5564000010490417 0.8245000243186951 0.029400000348687172 0.5651000142097473
          0.210999995470047 -0.974399983882904 -0.07800000160932541 0.05530000105500221 -0.9959999918937683 -0.06989999860525131
          0.7688000202178955 0.040300000458955765 0.6381999850273132 0.7128999829292297 0.06629999727010727 0.6980999708175659
          0.7053999900817871 0.08030000329017639 0.7042999863624573 0.15850000083446503 -0.9782999753952026 -0.13349999487400055
          0.11089999973773956 -0.9918000102043152 -0.06300000101327896 0.6657000184059143 0.08659999817609787 0.7411999702453613
          0.6086000204086304 0.11309999972581863 0.7853999733924866 0.5285999774932861 0.10490000247955322 0.8422999978065491
          -0.005100000184029341 -0.9847999811172485 0.17339999973773956 -0.14830000698566437 -0.9480000138282776 0.2818000018596649
          -0.07039999961853027 -0.9940999746322632 0.08190000057220459 0.41990000009536743 0.13930000364780426 0.8967999815940857
          0.3352000117301941 0.1728000044822693 0.9261000156402588 -0.4309000074863434 -0.025699999183416367 0.9020000100135803
          -0.32269999384880066 -0.11270000040531158 0.9397000074386597 -0.31709998846054077 -0.5928999781608582 0.7401999831199646
          0.24310000240802765 0.15489999949932098 0.9575999975204468 0.10010000318288803 0.13910000026226044 0.9851999878883362
          0.007000000216066837 0.1606999933719635 0.9869999885559082 -0.06669999659061432 0.0925000011920929 0.9934999942779541
          -0.16060000658035278 0.11909999698400497 0.9797999858856201 -0.21449999511241913 0.12460000067949295 0.9686999917030334
          -0.3260999917984009 0.07180000096559525 0.9426000118255615 -0.4023999869823456 0.08829999715089798 0.9111999869346619
          0.13189999759197235 -0.10409999638795853 -0.98580002784729 0.31679999828338623 -0.20340000092983246 -0.9264000058174133
          0.1876000016927719 -0.882099986076355 -0.4320000112056732 0.02410000003874302 -0.45840001106262207 -0.8884000182151794
          -0.01850000023841858 -0.5526999831199646 -0.8331999778747559 0.6902999877929688 -0.02500000037252903 -0.7231000065803528
          0.8780999779701233 0.003800000064074993 -0.47850000858306885 0.4462999999523163 -0.10649999976158142 -0.8884999752044678
          0.04910000041127205 -0.10740000009536743 -0.9929999709129333 0.04390000179409981 -0.08150000125169754 -0.9957000017166138
          0.10499999672174454 -0.05530000105500221 -0.992900013923645 0.15710000693798065 -0.09229999780654907 -0.983299970626831
          0.2150000035762787 -0.23090000450611115 -0.9488999843597412 0.2371000051498413 -0.9057999849319458 -0.35120001435279846
          -0.028599999845027924 -0.6962000131607056 -0.7172999978065491 0.19269999861717224 -0.9034000039100647 -0.3831999897956848
          0.015799999237060547 -0.8873999714851379 -0.46070000529289246 0.9803000092506409 -0.007300000172108412 -0.19709999859333038
          0.25859999656677246 -0.9423999786376953 -0.21209999918937683 0.0892999991774559 -0.8629999756813049 -0.49729999899864197
          0.193900004029274 -0.9606000185012817 -0.1988999992609024 0.08640000224113464 -0.7789000272750854 -0.6212000250816345