<?xml version="1.0"?>
<VTKFile type="PolyData" version="0.1" byte_order="LittleEndian" header_type="UInt32" compressor="vtkZLibDataCompressor">
  <PolyData>
    <FieldData>
      <Array type="String" Name="MaterialNames" NumberOfTuples="1" format="ascii">
        109 97 116 101 114 105 97 108 95 48 0
      </Array>
      <Array type="String" Name="MaterialLibraries" NumberOfTuples="1" format="ascii">
        109 97 116 101 114 105 97 108 46 109 116 108 0
      </Array>
    </FieldData>
    <Piece NumberOfPoints="17841" NumberOfVerts="0" NumberOfLines="0" NumberOfStrips="0" NumberOfPolys="35616">
      <PointData Normals="Normals">
        <DataArray type="Float32" Name="Normals" NumberOfComponents="3" format="ascii" RangeMin="0.9999226610883784" RangeMax="1.0000755540219302">
          0.07240000367164612 -0.9894999861717224 0.12530000507831573 -0.03669999912381172 -0.9807999730110168 0.1914999932050705
          0.24560000002384186 -0.9388999938964844 0.2410999983549118 0.9731000065803528 -0.1873999983072281 0.13379999995231628
          0.9477999806404114 -0.289900004863739 0.13300000131130219 0.9887999892234802 -0.10620000213384628 0.10480000078678131
          -0.9729999899864197 0.14970000088214874 -0.17569999396800995 -0.9814000129699707 0.13449999690055847 -0.13670000433921814
          -0.8841999769210815 0.4499000012874603 -0.12549999356269836 -0.781000018119812 0.5171999931335449 -0.3499999940395355
          -0.6875 0.6478999853134155 -0.328000009059906 -0.7910000085830688 0.5130000114440918 -0.3334999978542328
          0.9466000199317932 -0.10570000112056732 0.3043999969959259 0.961899995803833 0.11909999698400497 0.24609999358654022
          0.9648000001907349 -0.08799999952316284 0.24770000576972961 -0.05550000071525574 -0.9983999729156494 0.0066999997943639755
          0.002899999963119626 -0.9958000183105469 0.09200000017881393 0.07599999755620956 -0.9968000054359436 0.023000000044703484
          -0.46299999952316284 0.3873000144958496 0.7972000241279602 -0.1607999950647354 0.20059999823570251 0.9664000272750854
          -0.44190001487731934 0.21690000593662262 0.8704000115394592 0.3587000072002411 -0.2660999894142151 -0.8946999907493591
          0.49219998717308044 -0.3249000012874603 -0.8076000213623047 0.450300008058548 -0.16189999878406525 -0.8780999779701233
          0.7497000098228455 -0.17319999635219574 0.638700008392334 0.8597999811172485 -0.1712999939918518 0.4810999929904938
          0.8551999926567078 -0.1200999990105629 0.5041000247001648 -0.7096999883651733 -0.6934999823570251 0.12389999628067017
          -0.7793999910354614 -0.6263999938964844 0.00800000037997961 -0.6751999855041504 -0.7264999747276306 0.12800000607967377
          -0.49140000343322754 0.8471999764442444 -0.20190000534057617 -0.5181999802589417 0.833899974822998 -0.19009999930858612
          -0.5734000205993652 0.7817000150680542 -0.2451999932527542 0.0737999975681305 0.9968000054359436 -0.031300000846385956
          0.12210000306367874 0.9918000102043152 -0.03709999844431877 0.2526000142097473 0.9674999713897705 -0.0071000000461936
          0.1597999930381775 -0.9751999974250793 0.15330000221729279 0.10490000247955322 -0.9824000000953674 0.15469999611377716
          0.16670000553131104 -0.9668999910354614 0.1932000070810318 -0.3801000118255615 -0.9218000173568726 -0.07660000026226044
          -0.27489998936653137 -0.9592999815940857 -0.06390000134706497 -0.44179999828338623 -0.8942000269889832 -0.07199999690055847
          0.20440000295639038 -0.942300021648407 0.2651999890804291 0.7268999814987183 -0.5310999751091003 0.43540000915527344
          0.5508999824523926 -0.8307999968528748 0.07930000126361847 -0.996999979019165 0.024700000882148743 0.07349999994039536
          -0.9905999898910522 -0.10809999704360962 0.08389999717473984 -0.987500011920929 -0.10899999737739563 0.11420000344514847
          -0.3549000024795532 0.9021999835968018 -0.24529999494552612 0.026599999517202377 0.9976000189781189 -0.06350000202655792
          -0.45840001106262207 0.8779000043869019 -0.1387999951839447 0.5541999936103821 0.49410000443458557 0.6699000000953674
          0.06549999862909317 0.9824000000953674 0.17489999532699585 0.6179999709129333 0.7803999781608582 0.09539999812841415
          0.9754999876022339 0.20469999313354492 0.08020000159740448 0.9503999948501587 0.14000000059604645 -0.2775999903678894
          0.9542999863624573 0.2782999873161316 -0.10899999737739563 -0.45089998841285706 -0.542900025844574 -0.7085000276565552
          -0.37209999561309814 -0.7792999744415283 -0.5041999816894531 -0.5404999852180481 -0.6596999764442444 -0.5221999883651733
          0.8822000026702881 0.4706999957561493 0.01140000019222498 0.5810999870300293 0.7850000262260437 0.21480000019073486
          0.47429999709129333 0.8709999918937683 -0.12839999794960022 -0.13590000569820404 -0.7705000042915344 0.6227999925613403
          -0.4934999942779541 0.27959999442100525 0.8235999941825867 0.5800999999046326 -0.37709999084472656 0.722000002861023
          -0.5788000226020813 -0.7174999713897705 0.38749998807907104 -0.5630999803543091 -0.77920001745224 0.2752000093460083
          -0.600600004196167 -0.7401000261306763 0.30250000953674316 0.5782999992370605 -0.7840999960899353 0.22519999742507935
          0.567799985408783 -0.8192999958992004 0.07970000058412552 0.4390000104904175 -0.8946999907493591 -0.08240000158548355
          -0.17399999499320984 -0.9315999746322632 0.3190999925136566 0.07880000025033951 -0.9311000108718872 0.3562000095844269
          0.0771000012755394 -0.9344000220298767 0.34769999980926514 -0.690500020980835 0.4641000032424927 -0.5547999739646912
          -0.9088000059127808 0.12150000035762787 -0.3991999924182892 -0.9495000243186951 0.18330000340938568 -0.2547999918460846
          0.14149999618530273 -0.7915999889373779 -0.5945000052452087 -0.1817999929189682 -0.8402000069618225 -0.5109999775886536
          0.10700000077486038 -0.8702999949455261 -0.48080000281333923 0.9376000165939331 0.32839998602867126 -0.11460000276565552
          0.0010999999940395355 -0.9754999876022339 0.22010000050067902 0.8472999930381775 -0.40220001339912415 0.34700000286102295
          -0.3961000144481659 -0.049300000071525574 0.9168999791145325 -0.20090000331401825 0.020400000736117363 0.9793999791145325
          -0.1704999953508377 0.04899999871850014 0.9840999841690063 -0.7964000105857849 0.3781000077724457 -0.47209998965263367
          -0.8409000039100647 0.2506999969482422 -0.4796000123023987 -0.7874000072479248 0.35089999437332153 -0.5067999958992004
          -0.640500009059906 -0.6151000261306763 -0.45980000495910645 -0.7712000012397766 -0.5813999772071838 -0.25940001010894775
          -0.671500027179718 -0.6431000232696533 -0.36820000410079956 0.2264000028371811 -0.8996000289916992 0.3734000027179718
          0.20559999346733093 -0.9320999979972839 0.29829999804496765 0.09220000356435776 -0.9514999985694885 0.29339998960494995
          0.4140999913215637 0.8601999878883362 0.29760000109672546 0.4675999879837036 0.8640000224113464 0.1867000013589859
          0.4675000011920929 0.8572999835014343 0.21570000052452087 -0.8529999852180481 0.5209000110626221 -0.03290000185370445
          -0.8644000291824341 0.49880000948905945 -0.06289999932050705 -0.8668000102043152 0.49810001254081726 -0.02319999970495701
          0.8399999737739563 0.47110000252723694 0.26919999718666077 0.8269000053405762 0.49889999628067017 0.25949999690055847
          0.8824999928474426 0.43470001220703125 0.17970000207424164 -0.2206999957561493 0.9696000218391418 -0.1054999977350235
          -0.16339999437332153 0.9853000044822693 -0.05009999871253967 0.039000000804662704 0.9983000159263611 -0.04340000078082085
          0.9476000070571899 -0.08910000324249268 0.3066999912261963 0.9337000250816345 -0.2160000056028366 0.2856000065803528
          0.9265999794006348 -0.21050000190734863 0.311599999666214 0.31189998984336853 0.10499999672174454 -0.9442999958992004
          0.009499999694526196 0.06440000236034393 -0.9979000091552734 0.10779999941587448 -0.04360000044107437 -0.9932000041007996
          -0.6901000142097473 0.2782999873161316 -0.6679999828338623 -0.6899999976158142 0.3091000020503998 -0.6545000076293945
          -0.6898999810218811 0.23989999294281006 -0.6830000281333923 0.1923999935388565 -0.9714000225067139 -0.1387999951839447
          0.19979999959468842 -0.9790999889373779 -0.03880000114440918 0.2824000120162964 -0.9503999948501587 -0.13019999861717224
          -0.303600013256073 -0.27489998936653137 -0.9122999906539917 0.07419999688863754 -0.8428999781608582 -0.5328999757766724
          0.09950000047683716 -0.623199999332428 -0.7756999731063843 0.9488999843597412 0.1678999960422516 -0.26739999651908875
          0.975600004196167 0.02850000001490116 -0.2175000011920929 0.9731000065803528 -0.2287999987602234 -0.02710000053048134
          -0.19740000367164612 0.9120000004768372 0.3596999943256378 -0.10610000044107437 0.8880000114440918 0.4474000036716461
          -0.0658000037074089 0.9473000168800354 0.313400000333786 -0.7099000215530396 0.36959999799728394 -0.5996000170707703
          -0.47690001130104065 0.5338000059127808 -0.6983000040054321 -0.304500013589859 0.7985000014305115 -0.5192999839782715
          0.9824000000953674 0.17870000004768372 0.054099999368190765 0.31949999928474426 0.8655999898910522 0.3855000138282776
          0.710099995136261 0.6345999836921692 0.3050999939441681 0.6448000073432922 -0.19259999692440033 -0.7397000193595886
          0.3465999960899353 0.31470000743865967 -0.8837000131607056 -0.304500013589859 -0.2354000061750412 -0.9229999780654907
          0.1379999965429306 -0.9591000080108643 -0.24699999392032623 -0.055799998342990875 -0.9672999978065491 -0.2475000023841858
          0.12999999523162842 -0.9717000126838684 -0.19699999690055847 0.4708999991416931 0.7705000042915344 0.4296000003814697
          -0.11469999700784683 0.984499990940094 0.1324000060558319 0.2700999975204468 0.940500020980835 -0.20630000531673431
          0.3707999885082245 -0.8845000267028809 -0.2831000089645386 0.375 -0.923799991607666 0.07699999958276749
          0.5552999973297119 -0.8270000219345093 0.0877000018954277 -0.9659000039100647 0.23960000276565552 0.09769999980926514
          -0.9789999723434448 0.2012999951839447 0.03350000083446503 -0.6836000084877014 0.11959999799728394 0.7200000286102295
          -0.22100000083446503 0.49970000982284546 -0.8374999761581421 0.5652999877929688 0.2078000009059906 -0.79830002784729
          0.6198999881744385 0.6431000232696533 -0.4496000111103058 -0.892799973487854 -0.31610000133514404 -0.32089999318122864
          -0.8615000247955322 0.34950000047683716 -0.36820000410079956 -0.8438000082969666 -0.23080000281333923 -0.484499990940094
          0.5587999820709229 0.8260999917984009 0.07249999791383743 0.5421000123023987 0.8392999768257141 0.040800001472234726
          0.7035999894142151 0.7095000147819519 0.03830000013113022 0.48240000009536743 0.8353999853134155 -0.26330000162124634
          0.5292999744415283 0.8258000016212463 -0.19460000097751617 0.3402000069618225 0.89410001039505 -0.29109999537467957
          -0.323199987411499 0.6240000128746033 -0.7114999890327454 -0.613099992275238 0.5076000094413757 -0.6053000092506409
          -0.5339000225067139 0.3499000072479248 -0.7696999907493591 0.5292999744415283 -0.6736999750137329 0.5157999992370605
          0.5378000140190125 -0.7735000252723694 0.33550000190734863 0.4480000138282776 -0.7874000072479248 0.4235000014305115
          0.11219999939203262 -0.15629999339580536 -0.9812999963760376 0.18880000710487366 -0.20679999887943268 -0.9599999785423279
          0.2955999970436096 -0.4415999948978424 -0.847100019454956 -0.9442999958992004 -0.14079999923706055 -0.2973000109195709
          -0.9438999891281128 -0.1720000058412552 -0.2818000018596649 -0.9308000206947327 -0.16189999878406525 -0.3276999890804291
          0.47290000319480896 -0.8810999989509583 -0.010099999606609344 0.3197999894618988 -0.9142000079154968 0.24869999289512634
          0.33009999990463257 -0.939300000667572 0.0940999984741211 0.8029000163078308 0.4684999883174896 -0.3686999976634979
          0.45750001072883606 0.6693999767303467 -0.5853000283241272 0.5583000183105469 0.6284999847412109 -0.5415999889373779
          0.11460000276565552 -0.967199981212616 0.226500004529953 0.05090000107884407 -0.9901999831199646 0.13009999692440033
          0.04820000007748604 -0.9925000071525574 0.1120000034570694 0.28760001063346863 0.9042999744415283 -0.31540000438690186
          -0.21199999749660492 0.8560000061988831 -0.4715999960899353 0.48190000653266907 0.801800012588501 -0.353300005197525
          0.0038999998942017555 0.9682999849319458 -0.24959999322891235 0.16519999504089355 0.9089999794960022 -0.38269999623298645
          0.03739999979734421 0.9434000253677368 -0.3296000063419342 0.7858999967575073 0.15780000388622284 0.5978000164031982
          -0.03689999878406525 0.9660000205039978 0.25600001215934753 0.41280001401901245 0.9003999829292297 0.13740000128746033
          -0.4819999933242798 -0.607699990272522 0.6312000155448914 -0.6292999982833862 -0.4108000099658966 0.6596999764442444
          -0.484499990940094 -0.44029998779296875 0.7559000253677368 -0.9409000277519226 -0.3345000147819519 -0.05249999836087227
          -0.1273999959230423 -0.7696999907493591 0.6255999803543091 -0.05820000171661377 -0.9650999903678894 0.2554999887943268
          0.6118000149726868 0.78329998254776 -0.11010000109672546 0.46970000863075256 0.8722000122070312 -0.1363999992609024
          0.4961000084877014 0.8282999992370605 -0.2605000138282776 -0.9333999752998352 -0.12759999930858612 0.3353999853134155
          -0.9872000217437744 -0.04050000011920929 0.15410000085830688 -0.9696999788284302 0.14920000731945038 0.19359999895095825
          -0.4320000112056732 -0.9010999798774719 -0.03830000013113022 -0.9372000098228455 -0.3271999955177307 -0.120899997651577
          -0.7024000287055969 -0.7085999846458435 0.06790000200271606 0.7099999785423279 0.5576000213623047 -0.4300999939441681
          0.9244999885559082 0.13609999418258667 -0.35600000619888306 0.7294999957084656 0.6632000207901001 -0.16750000417232513
          -0.8518999814987183 -0.4632999897003174 -0.24420000612735748 -0.8608999848365784 -0.35030001401901245 -0.36899998784065247
          -0.8675000071525574 -0.4041000008583069 -0.28999999165534973 0.8761000037193298 0.30230000615119934 -0.37560001015663147
          0.9325000047683716 -0.3192000091075897 -0.16920000314712524 0.892799973487854 0.0421999990940094 -0.44850000739097595
          0.8427000045776367 0.30410000681877136 0.44429999589920044 0.8047000169754028 0.5562999844551086 0.20739999413490295
          0.9815999865531921 0.08749999850988388 0.17000000178813934 0.7488999962806702 -0.6481999754905701 0.13760000467300415
          0.9161999821662903 -0.337799996137619 0.21570000052452087 0.8884000182151794 -0.41040000319480896 -0.20579999685287476
          0.8982999920845032 0.25369998812675476 0.358599990606308 0.8657000064849854 0.3167000114917755 0.38760000467300415
          0.8246999979019165 0.45260000228881836 0.3391999900341034 0.8600999712944031 -0.011699999682605267 0.5099999904632568
          0.7922999858856201 0.06360000371932983 0.6068999767303467 0.791700005531311 -0.06790000200271606 0.6071000099182129
          0.9487000107765198 0.27619999647140503 0.15369999408721924 0.9478999972343445 -0.2295999974012375 0.22100000083446503
          0.9101999998092651 0.15489999949932098 0.3840000033378601 -0.8981999754905701 0.38029998540878296 -0.22030000388622284
          -0.7889000177383423 0.38929998874664307 -0.4754999876022339 -0.6783999800682068 0.6690000295639038 -0.3037000000476837
          0.5364000201225281 0.7803000211715698 0.3215000033378601 0.5595999956130981 0.70169997215271 0.4410000145435333
          0.4593000113964081 0.7800999879837036 0.42480000853538513 -0.9038000106811523 0.32910001277923584 0.273499995470047
          -0.625 0.6995000243186951 0.3467000126838684 -0.01549999974668026 0.5533999800682068 0.8327999711036682
          -0.8141000270843506 -0.01510000042617321 -0.5805000066757202 -0.8600000143051147 -0.1274999976158142 -0.49399998784065247
          -0.9502000212669373 -0.05480000004172325 -0.3066999912261963 -0.49230000376701355 -0.7272999882698059 -0.4781999886035919
          -0.44359999895095825 -0.7831000089645386 -0.4359000027179718 -0.43939998745918274 -0.7257999777793884 -0.5292999744415283
          0.9968000054359436 -0.021400000900030136 -0.07639999687671661 0.968500018119812 -0.059700001031160355 0.2418999969959259
          0.9725000262260437 -0.13619999587535858 -0.1891999989748001 0.7595000267028809 -0.5938000082969666 -0.26579999923706055
          0.850600004196167 -0.40380001068115234 -0.3368000090122223 0.7730000019073486 0.20749999582767487 -0.5995000004768372
          -0.5956000089645386 -0.794700026512146 0.11720000207424164 -0.5195000171661377 -0.8486999869346619 -0.09910000115633011
          -0.5128999948501587 -0.8583999872207642 -0.010599999688565731 0.3849000036716461 0.7896999716758728 0.47780001163482666
          0.4970000088214874 0.535099983215332 0.6830999851226807 0.4481000006198883 0.5121999979019165 0.732699990272522
          0.896399974822998 -0.30730000138282776 0.31940001249313354 0.879800021648407 -0.3677000105381012 0.3012999892234802
          0.9053000211715698 -0.29089999198913574 0.3093999922275543 0.06960000097751617 -0.9954000115394592 0.06639999896287918
          0.08479999750852585 -0.9904999732971191 0.10790000110864639 -0.03779999911785126 -0.996999979019165 0.06750000268220901
          0.3093000054359436 0.9509000182151794 0.012299999594688416 0.3005000054836273 0.9537000060081482 -0.009200000204145908
          0.4235999882221222 0.904699981212616 0.04650000110268593 0.6111000180244446 0.7700999975204468 -0.1826999932527542
          0.210099995136261 -0.541700005531311 -0.8138999938964844 0.20020000636577606 -0.24869999289512634 -0.947700023651123
          0.2612000107765198 -0.21379999816417694 -0.9412999749183655 0.982699990272522 -0.1273999959230423 -0.1348000019788742
          0.7505000233650208 -0.6524999737739563 -0.10429999977350235 0.8202999830245972 -0.5442000031471252 0.17599999904632568
          0.928600013256073 -0.1868000030517578 0.3206000030040741 0.7171000242233276 -0.4925999939441681 0.49309998750686646
          0.887499988079071 -0.33410000801086426 0.3172000050544739 0.7218000292778015 -0.6114000082015991 0.32440000772476196
          -0.5999000072479248 -0.8001000285148621 0.000699999975040555 -0.5069000124931335 -0.8600999712944031 -0.05700000002980232
          -0.5982999801635742 -0.7968999743461609 -0.08370000123977661 -0.867900013923645 0.4163999855518341 -0.2709999978542328
          -0.8270000219345093 0.5188000202178955 -0.2168000042438507 -0.8662999868392944 0.4645000100135803 -0.18359999358654022
          0.4433000087738037 -0.6341000199317932 0.6334999799728394 0.49459999799728394 -0.6251999735832214 0.6037999987602234
          0.6290000081062317 -0.4763000011444092 0.6144000291824341 -0.4717000126838684 0.7925000190734863 -0.38659998774528503
          -0.4514000117778778 0.7825999855995178 -0.4287000000476837 -0.5390999913215637 0.7074999809265137 -0.4569000005722046
          -0.46149998903274536 0.7734000086784363 -0.43470001220703125 0.42730000615119934 0.901199996471405 0.07289999723434448
          0.47699999809265137 0.8777999877929688 0.04490000009536743 0.35690000653266907 0.9333999752998352 0.03680000081658363
          -0.4814999997615814 0.8727999925613403 -0.07919999957084656 -0.5455999970436096 0.8367000222206116 -0.04740000143647194
          -0.5205000042915344 0.8521999716758728 -0.05400000140070915 -0.4763000011444092 0.8723999857902527 0.1096000000834465
          -0.5206999778747559 0.8507000207901001 0.07169999927282333 -0.4291999936103821 0.8984000086784363 0.09359999746084213
          -0.9380999803543091 0.22280000150203705 0.26510000228881836 -0.9451000094413757 0.1339000016450882 0.29820001125335693
          -0.900600016117096 0.16500000655651093 0.40209999680519104 0.9517999887466431 -0.2881999909877777 0.10499999672174454
          0.8827000260353088 -0.45489999651908875 0.1177000030875206 0.8970999717712402 -0.42910000681877136 0.10540000349283218
          -0.7131999731063843 0.6976000070571899 -0.06830000132322311 -0.77920001745224 0.6104000210762024 -0.14249999821186066
          -0.7922999858856201 0.5961999893188477 -0.12970000505447388 -0.4596000015735626 -0.8841999769210815 0.08259999752044678
          -0.5038999915122986 -0.863099992275238 -0.03440000116825104 -0.5400999784469604 -0.8371999859809875 0.08590000122785568
          -0.7386000156402588 -0.6690000295639038 -0.08340000361204147 -0.8373000025749207 -0.5325999855995178 -0.12380000203847885
          -0.7641000151634216 -0.6269999742507935 -0.15160000324249268 0.6823999881744385 0.7286999821662903 0.05829999968409538
          0.6901000142097473 0.7123000025749207 0.12839999794960022 0.614799976348877 0.786300003528595 0.06030000001192093
          -0.9909999966621399 -0.12319999933242798 0.05180000141263008 -0.9850999712944031 -0.1695999950170517 0.029600000008940697
          -0.9919999837875366 -0.0714000016450882 0.10409999638795853 0.020400000736117363 -0.039400000125169754 0.9990000128746033
          0.21400000154972076 -0.0794999971985817 0.9735999703407288 0.12129999697208405 0.011699999682605267 0.9925000071525574
          0.9552000164985657 -0.2718999981880188 -0.11670000106096268 0.6977999806404114 -0.59579998254776 -0.397599995136261
          0.7549999952316284 0.49399998784065247 0.43130001425743103 0.8093000054359436 0.45260000228881836 0.37439998984336853
          0.817799985408783 0.3528999984264374 0.4546000063419342 0.8148999810218811 -0.0697999969124794 0.5753999948501587
          0.9017000198364258 -0.39149999618530273 -0.18359999358654022 0.6661999821662903 -0.6513000130653381 -0.36329999566078186
          0.8123999834060669 -0.5598000288009644 -0.16339999437332153 0.43209999799728394 -0.8449000120162964 0.31540000438690186
          0.5404000282287598 -0.6577000021934509 0.5248000025749207 0.600600004196167 -0.5439000129699707 0.5860999822616577
          0.5953999757766724 0.5206000208854675 0.6118999719619751 0.7360000014305115 0.4699000120162964 0.48730000853538513
          0.6150000095367432 0.29589998722076416 0.73089998960495 0.7222999930381775 0.6158000230789185 -0.3147999942302704
          0.9682999849319458 0.10520000010728836 -0.226500004529953 0.694100022315979 0.7089999914169312 -0.12430000305175781
          0.5268999934196472 0.8138999938964844 0.24500000476837158 0.40939998626708984 0.8650000095367432 0.29030001163482666
          0.24269999563694 0.9368000030517578 0.25200000405311584 -0.2639000117778778 0.9248999953269958 -0.2736000120639801
          -0.28700000047683716 0.9484000205993652 0.13490000367164612 -0.4512999951839447 0.8913000226020813 0.043800000101327896
          -0.12890000641345978 0.04740000143647194 0.9904999732971191 -0.2612999975681305 0.03180000185966492 0.9646999835968018
          -0.23680000007152557 0.07609999924898148 0.9685999751091003 -0.1266999989748001 0.11919999867677689 0.9847999811172485
          -0.18780000507831573 0.04320000112056732 0.9812999963760376 -0.3160000145435333 -0.04859999939799309 0.9474999904632568
          0.10090000182390213 0.15209999680519104 -0.9832000136375427 0.4700999855995178 0.22370000183582306 -0.8537999987602234
          0.335099995136261 0.1995999962091446 -0.920799970626831 0.4187000095844269 0.8996000289916992 0.12430000305175781
          0.33320000767707825 0.932200014591217 0.14139999449253082 0.20499999821186066 0.9742000102996826 0.09399999678134918
          -0.9435999989509583 0.05730000138282776 -0.3260999917984009 -0.9420999884605408 -0.029200000688433647 -0.334199994802475
          -0.9478999972343445 -0.06040000170469284 -0.31290000677108765 -0.73580002784729 -0.27570000290870667 -0.6184999942779541
          -0.7378000020980835 -0.36480000615119934 -0.5680000185966492 -0.7287999987602234 -0.3736000061035156 -0.5738000273704529
          0.1623000055551529 0.001500000013038516 0.9866999983787537 0.18619999289512634 0.04540000110864639 0.9815000295639038
          0.33489999175071716 0.5160999894142151 0.7883999943733215 0.9829000234603882 0.12470000237226486 -0.13529999554157257
          0.8508999943733215 0.36340001225471497 -0.37929999828338623 0.9513000249862671 0.009800000116229057 -0.30820000171661377
          0.8797000050544739 0.40049999952316284 0.25619998574256897 0.8851000070571899 0.39430001378059387 0.24709999561309814
          0.9132999777793884 0.3082999885082245 0.2662999927997589 0.24320000410079956 0.36320000886917114 -0.899399995803833
          -0.01730000041425228 0.3433000147342682 -0.9391000270843506 -0.003800000064074993 0.3628000020980835 -0.9319000244140625
          -0.47769999504089355 -0.6521000266075134 -0.588699996471405 -0.21289999783039093 -0.9417999982833862 -0.26019999384880066
          0.3774999976158142 -0.9259999990463257 -0.008700000122189522 -0.08900000154972076 -0.98089998960495 -0.1729000061750412
          -0.5270000100135803 -0.8162999749183655 0.23649999499320984 0.3034000098705292 -0.9071000218391418 0.29190000891685486
          0.9955000281333923 -0.06350000202655792 0.06989999860525131 0.9814000129699707 -0.14239999651908875 0.12849999964237213
          0.9904999732971191 -0.13420000672340393 0.030799999833106995 -0.6464999914169312 -0.027899999171495438 -0.7623999714851379
          -0.7045000195503235 0.12099999934434891 -0.6992999911308289 -0.5548999905586243 0.33500000834465027 -0.7615000009536743
          0.5594000220298767 -0.5485000014305115 -0.6215000152587891 0.3774999976158142 -0.5307000279426575 -0.7588000297546387
          0.6080999970436096 -0.5748999714851379 -0.5475000143051147 -0.2750000059604645 -0.13459999859333038 0.9520000219345093
          -0.7754999995231628 -0.39649999141693115 -0.49129998683929443 -0.9265999794006348 -0.35830000042915344 -0.11420000344514847
          -0.8375999927520752 -0.5424000024795532 -0.06459999829530716 0.34610000252723694 0.9380999803543091 0.014999999664723873
          0.4205000102519989 0.8931000232696533 -0.15970000624656677 0.30720001459121704 0.932200014591217 -0.1915999948978424
          0.8320000171661377 0.5374000072479248 0.13760000467300415 0.9028000235557556 0.21719999611377716 -0.37119999527931213
          0.8618999719619751 0.5070000290870667 0.014299999922513962 0.14190000295639038 0.9362999796867371 0.32120001316070557
          0.21230000257492065 0.9610000252723694 0.17710000276565552 0.32919999957084656 0.8646000027656555 0.3797000050544739
          0.1964000016450882 0.8464000225067139 -0.4948999881744385 -0.4147000014781952 0.4846000075340271 -0.7702000141143799
          -0.33169999718666077 0.8159999847412109 -0.4733999967575073 0.18520000576972961 0.9129999876022339 0.3634999990463257
          0.057999998331069946 0.9072999954223633 0.41659998893737793 -0.1754000037908554 0.973800003528595 -0.14489999413490295
          -0.043800000101327896 0.984499990940094 0.1695999950170517 -0.21199999749660492 0.9760000109672546 -0.05050000175833702
          -0.2554999887943268 0.9614999890327454 0.10080000013113022 0.6204000115394592 0.7810999751091003 0.07020000368356705
          0.8077999949455261 0.5871999859809875 0.05050000175833702 0.753600001335144 0.6136999726295471 0.23549999296665192
          -0.7810999751091003 0.593999981880188 -0.1923000067472458 -0.7383999824523926 0.6463000178337097 -0.19249999523162842
          -0.7236999869346619 0.6545000076293945 -0.21879999339580536 0.5497999787330627 -0.25529998540878296 0.7954000234603882
          0.5121999979019165 -0.6403999924659729 0.5723000168800354 -0.20200000703334808 -0.42879998683929443 0.8805000185966492
          -0.3066999912261963 0.5837000012397766 -0.751800000667572 0.4359999895095825 0.08709999918937683 -0.8956999778747559
          0.45829999446868896 0.39329999685287476 -0.796999990940094 0.6690000295639038 -0.7429999709129333 0.019899999722838402
          0.7444000244140625 -0.6672000288963318 -0.026100000366568565 0.5809999704360962 -0.7957000136375427 0.17149999737739563
          0.9983000159263611 0.029600000008940697 -0.049300000071525574 0.9544000029563904 -0.1200999990105629 0.27320000529289246
          0.9514999985694885 0.22290000319480896 0.21199999749660492 -0.5019000172615051 -0.8647000193595886 0.02070000022649765
          -0.5382999777793884 -0.8424000144004822 0.024299999698996544 -0.4345000088214874 -0.900600016117096 0.008799999952316284
          -0.33869999647140503 -0.8662999868392944 0.36719998717308044 -0.14300000667572021 -0.9053999781608582 0.39969998598098755
          0.2976999878883362 0.9509999752044678 0.08309999853372574 0.41589999198913574 0.8540999889373779 0.31220000982284546
          0.7175999879837036 0.6963000297546387 0.016899999231100082 -0.29030001163482666 -0.880299985408783 -0.3752000033855438
          -0.14710000157356262 -0.9890999794006348 -0.002099999925121665 0.3034999966621399 -0.9430000185966492 0.1363999992609024
          0.9218000173568726 0.0754999965429306 0.3801000118255615 0.9156000018119812 0.28349998593330383 0.2851000130176544
          0.8510000109672546 0.4009000062942505 0.3393000066280365 0.5033000111579895 0.8551999926567078 -0.12370000034570694
          0.4650999903678894 0.8827000260353088 0.06729999929666519 0.5336999893188477 0.8456000089645386 0.009700000286102295
          -0.923799991607666 -0.2451999932527542 -0.29420000314712524 -0.9779000282287598 -0.2011999934911728 -0.05649999901652336
          -0.8730000257492065 -0.4855000078678131 -0.04600000008940697 0.06360000371932983 0.9768000245094299 0.20430000126361847