<?xml version="1.0"?>
<VTKFile type="PolyData" version="0.1" byte_order="LittleEndian" header_type="UInt32" compressor="vtkZLibDataCompressor">
  <PolyData>
    <FieldData>
      <Array type="String" Name="MaterialNames" NumberOfTuples="1" format="ascii">
        109 97 116 101 114 105 97 108 95 48 0
      </Array>
      <Array type="String" Name="MaterialLibraries" NumberOfTuples="1" format="ascii">
        109 97 116 101 114 105 97 108 46 109 116 108 0
      </Array>
    </FieldData>
    <Piece NumberOfPoints="16437" NumberOfVerts="0" NumberOfLines="0" NumberOfStrips="0" NumberOfPolys="33238">
      <PointData Normals="Normals">
        <DataArray type="Float32" Name="Normals" NumberOfComponents="3" format="ascii" RangeMin="0.9999235544883206" RangeMax="1.0000821726060112">
          0.9383999705314636 0.04639999940991402 0.3424000144004822 0.9835000038146973 -0.043800000101327896 0.17579999566078186
          0.9764999747276306 0.03150000050663948 0.21299999952316284 -0.5388000011444092 0.288100004196167 0.7915999889373779
          -0.31040000915527344 0.20520000159740448 0.9282000064849854 -0.22179999947547913 0.2337000072002411 0.9466999769210815
          -0.9323999881744385 -0.024399999529123306 -0.36070001125335693 -0.8644999861717224 -0.11169999837875366 -0.4900999963283539
          -0.9431999921798706 -0.03180000185966492 -0.33079999685287476 -0.2337000072002411 -0.17839999496936798 -0.9557999968528748
          -0.1200999990105629 -0.1932000070810318 -0.973800003528595 -0.2409999966621399 -0.17299999296665192 -0.9549999833106995
          0.39160001277923584 0.22200000286102295 0.8930000066757202 0.5232999920845032 0.10329999774694443 0.8458999991416931
          0.6043999791145325 0.1216999962925911 0.7872999906539917 -0.13850000500679016 -0.08869999647140503 -0.9864000082015991
          -0.24639999866485596 -0.10400000214576721 -0.9635999798774719 -0.12860000133514404 -0.11169999837875366 -0.9854000210762024
          -0.8514999747276306 -0.10840000212192535 -0.5131000280380249 -0.9247000217437744 0.0005000000237487257 -0.3806000053882599
          -0.7961999773979187 -0.0421999990940094 -0.603600025177002 -0.8804000020027161 0.08950000256299973 0.46560001373291016
          -0.9021000266075134 0.09189999848604202 0.42170000076293945 -0.8906000256538391 0.09889999777078629 0.4438999891281128
          -0.8671000003814697 -0.11940000206232071 -0.483599990606308 -0.7630000114440918 -0.6427000164985657 -0.07000000029802322
          -0.6352999806404114 -0.6977999806404114 -0.3310000002384186 0.9799000024795532 -0.19910000264644623 0.014100000262260437
          0.9782999753952026 -0.17430000007152557 -0.11230000108480453 0.9617000222206116 -0.2443999946117401 -0.12399999797344208
          -0.19740000367164612 0.22689999639987946 0.9537000060081482 -0.07680000364780426 0.18979999423027039 0.9787999987602234
          -0.46230000257492065 0.1949000060558319 0.8650000095367432 -0.6434999704360962 0.14499999582767487 0.7516000270843506
          -0.71670001745224 0.15399999916553497 0.6801999807357788 -0.7336000204086304 0.17309999465942383 0.6571999788284302
          0.885200023651123 -0.05209999904036522 -0.46230000257492065 0.7315000295639038 -0.1379999965429306 -0.6678000092506409
          0.8084999918937683 -0.1315000057220459 -0.5735999941825867 0.6686000227928162 -0.14110000431537628 -0.7300999760627747
          0.5819000005722046 -0.1915999948978424 -0.7904000282287598 0.6337000131607056 -0.1738000065088272 -0.7537999749183655
          0.4124000072479248 0.9071999788284302 0.0828000009059906 0.4122999906539917 0.8831999897956848 -0.22370000183582306
          0.3057999908924103 0.9483000040054321 -0.08479999750852585 0.09139999747276306 0.009200000204145908 0.9958000183105469
          -0.5947999954223633 -0.031700000166893005 0.8032000064849854 -0.16050000488758087 0.44209998846054077 0.8824999928474426
          -0.34529998898506165 0.9092000126838684 -0.23280000686645508 -0.39910000562667847 0.8708000183105469 -0.2872999906539917
          -0.5065000057220459 0.8610000014305115 0.045899998396635056 -0.27480000257492065 0.5429999828338623 -0.7935000061988831
          -0.31360000371932983 0.670199990272522 -0.6726999878883362 -0.03999999910593033 0.7120000123977661 -0.7010999917984009
          -0.17229999601840973 -0.484499990940094 -0.8575999736785889 0.22920000553131104 -0.6632000207901001 -0.7124999761581421
          -0.29580000042915344 -0.2070000022649765 -0.9325000047683716 0.3255999982357025 0.18970000743865967 0.9262999892234802
          0.19259999692440033 0.1151999980211258 0.9745000004768372 -0.5130000114440918 -0.27300000190734863 -0.8137999773025513
          -0.4684999883174896 -0.3490000069141388 -0.8116000294685364 -0.5672000050544739 -0.22139999270439148 -0.7932000160217285
          0.9559999704360962 -0.010300000198185444 -0.29319998621940613 0.8809999823570251 -0.02329999953508377 -0.4726000130176544
          0.9577999711036682 -0.02250000089406967 -0.2865000069141388 -0.8159999847412109 0.38749998807907104 -0.42890000343322754
          -0.9607999920845032 0.05270000174641609 -0.27219998836517334 -0.7598999738693237 0.35679998993873596 -0.5432999730110168
          0.8043000102043152 0.056299999356269836 -0.5914999842643738 0.36500000953674316 -0.07609999924898148 -0.9279000163078308
          0.5388000011444092 0.09809999912977219 -0.8367000222206116 -0.9898999929428101 -0.06909999996423721 0.12399999797344208
          -0.8978000283241272 0.07750000059604645 0.4334999918937683 -0.7145000100135803 -0.6894999742507935 0.11860000342130661
          0.8912000060081482 -0.34599998593330383 -0.29330000281333923 0.4848000109195709 -0.2937999963760376 -0.8238000273704529
          0.608299970626831 -0.6044999957084656 -0.5144000053405762 0.7468000054359436 -0.3750999867916107 0.5491999983787537
          0.6312000155448914 -0.3091999888420105 0.7113999724388123 0.6266000270843506 -0.4440000057220459 0.6403999924659729
          -0.12700000405311584 0.06300000101327896 0.9898999929428101 -0.15559999644756317 -0.01269999984651804 0.9876999855041504
          -0.32109999656677246 0.0071000000461936 0.9470000267028809 0.7731000185012817 0.08240000158548355 0.6288999915122986
          0.703000009059906 -0.1289999932050705 0.699400007724762 0.5846999883651733 0.649399995803833 0.4862000048160553
          0.9977999925613403 -0.01720000058412552 0.0640999972820282 0.9898999929428101 -0.04769999906420708 0.13330000638961792
          0.9933000206947327 -0.09040000289678574 -0.07190000265836716 -0.9402999877929688 -0.050599999725818634 -0.33649998903274536
          -0.9017999768257141 -0.42559999227523804 0.07490000128746033 -0.8971999883651733 -0.2231999933719635 -0.38100001215934753
          0.9591000080108643 0.09350000321865082 0.2671999931335449 0.7856000065803528 0.16760000586509705 0.5956000089645386
          0.8294000029563904 0.2766000032424927 0.48539999127388 0.5108000040054321 -0.33000001311302185 -0.7937999963760376
          0.4602000117301941 -0.1234000027179718 -0.8791999816894531 0.542900025844574 -0.16859999299049377 -0.822700023651123
          0.6359999775886536 0.7689999938011169 0.06449999660253525 0.7475000023841858 0.6621000170707703 0.05260000005364418
          0.66839998960495 0.7398999929428101 -0.07569999992847443 0.11309999972581863 -0.042899999767541885 -0.9926999807357788
          0.4580000042915344 0.08209999650716782 -0.885200023651123 0.3075999915599823 0.45339998602867126 -0.8366000056266785
          -0.4115000069141388 -0.39399999380111694 0.8217999935150146 -0.3111000061035156 -0.49570000171661377 0.8108999729156494
          -0.5067999958992004 -0.7588000297546387 0.4092000126838684 -0.9240999817848206 0.09369999915361404 0.37059998512268066
          -0.9230999946594238 0.1257999986410141 0.36329999566078186 -0.9354000091552734 0.11819999665021896 0.33329999446868896
          -0.6908000111579895 0.3734000027179718 -0.6190999746322632 -0.6485000252723694 0.3142000138759613 -0.6933000087738037
          -0.7745000123977661 0.30300000309944153 -0.5552999973297119 0.7491000294685364 -0.6137999892234802 0.24899999797344208
          0.6571000218391418 -0.7522000074386597 -0.049300000071525574 0.4925999939441681 -0.8676000237464905 -0.06780000030994415
          0.6582000255584717 0.18310000002384186 -0.7301999926567078 0.8659999966621399 -0.430400013923645 -0.25450000166893005
          0.9508000016212463 -0.12790000438690186 0.28220000863075256 -0.2847999930381775 0.1703999936580658 0.9433000087738037
          0.010200000368058681 0.2736000120639801 0.9617999792098999 -0.05400000140070915 0.1597999930381775 0.9857000112533569
          -0.5910999774932861 0.2890999913215637 -0.753000020980835 -0.6912999749183655 0.675000011920929 -0.257999986410141
          -0.8112000226974487 0.3626999855041504 -0.4587000012397766 -0.37369999289512634 0.5242999792098999 -0.7651000022888184
          -0.6843000054359436 0.18250000476837158 -0.7059999704360962 -0.2223999947309494 0.20990000665187836 -0.9520999789237976
          -0.7773000001907349 -0.14409999549388885 -0.6122999787330627 -0.7979999780654907 -0.08240000158548355 -0.597000002861023
          -0.9384999871253967 -0.061000000685453415 -0.3400000035762787 -0.8273000121116638 -0.028999999165534973 -0.5611000061035156
          -0.7509999871253967 -0.05779999867081642 -0.657800018787384 -0.7419999837875366 -0.09880000352859497 -0.6629999876022339
          0.7839999794960022 0.06889999657869339 0.6169000267982483 0.5213000178337097 0.125 0.8442000150680542
          0.6080999970436096 0.08320000022649765 0.7894999980926514 0.8550000190734863 -0.3093000054359436 -0.41620001196861267
          0.8565999865531921 -0.13210000097751617 -0.49880000948905945 0.5976999998092651 -0.062199998646974564 -0.7993000149726868
          0.840399980545044 0.0674000009894371 0.5378000140190125 0.8673999905586243 0.13259999454021454 0.4796000123023987
          0.7178999781608582 0.08720000088214874 0.6905999779701233 -0.2757999897003174 0.9611999988555908 -0.005499999970197678
          -0.26570001244544983 0.9634000062942505 -0.035100001841783524 -0.3763999938964844 0.9232000112533569 -0.07760000228881836
          0.33469998836517334 -0.05220000073313713 0.9409000277519226 0.27219998836517334 -0.10849999636411667 0.9560999870300293
          0.28839999437332153 -0.061900001019239426 0.9555000066757202 0.14710000157356262 0.27720001339912415 0.9495000243186951
          0.17299999296665192 0.21610000729560852 0.9609000086784363 -0.05050000175833702 0.2393999993801117 0.9696000218391418
          0.7723000049591064 0.10360000282526016 0.6266999840736389 0.7846999764442444 0.061500001698732376 0.6168000102043152
          0.6916999816894531 0.07670000195503235 0.7181000113487244 -0.5896999835968018 -0.16359999775886536 -0.7908999919891357
          -0.4819999933242798 -0.12849999964237213 -0.8666999936103821 -0.7105000019073486 -0.4927999973297119 -0.5023000240325928
          0.9587000012397766 0.035599999129772186 0.28200000524520874 0.9595999717712402 0.03790000081062317 0.27889999747276306
          0.9603999853134155 -0.0013000000035390258 0.27869999408721924 -0.9258999824523926 -0.1623000055551529 0.3411000072956085
          -0.8436999917030334 0.023399999365210533 0.536300003528595 -0.9355000257492065 0.07859999686479568 0.34439998865127563
          0.19740000367164612 0.3012999892234802 0.9329000115394592 0.08630000054836273 0.27379998564720154 0.9578999876976013
          0.2623000144958496 0.3418000042438507 0.902400016784668 -0.5220000147819519 -0.45980000495910645 -0.7184000015258789
          -0.705299973487854 -0.266400009393692 -0.6570000052452087 -0.6560999751091003 -0.2752000093460083 -0.7027000188827515
          0.8014000058174133 0.007400000002235174 0.5981000065803528 0.6880999803543091 0.21240000426769257 0.6937999725341797
          0.8916000127792358 0.17499999701976776 0.41760000586509705 0.32589998841285706 -0.5406000018119812 -0.775600016117096
          0.33709999918937683 -0.3472999930381775 -0.8751000165939331 0.3837999999523163 -0.6955000162124634 -0.6075000166893005
          0.030799999833106995 -0.44920000433921814 -0.8928999900817871 -0.04879999905824661 -0.8079000115394592 -0.5871999859809875
          0.22300000488758087 -0.241799995303154 -0.9442999958992004 -0.27000001072883606 0.9085999727249146 0.3188000023365021
          0.32670000195503235 0.8920999765396118 0.31209999322891235 0.20180000364780426 0.9710000157356262 0.12780000269412994
          -0.9663000106811523 0.02459999918937683 0.25609999895095825 -0.8521999716758728 0.13410000503063202 0.5056999921798706
          -0.6822999715805054 0.061900001019239426 0.7283999919891357 0.32019999623298645 -0.09610000252723694 0.9424999952316284
          -0.36980000138282776 0.1624000072479248 0.9147999882698059 -0.8205999732017517 0.17000000178813934 -0.5455999970436096
          -0.9204000234603882 0.01600000075995922 -0.39079999923706055 -0.7634999752044678 -0.006599999964237213 -0.645799994468689
          -0.8924000263214111 -0.2727000117301941 0.359499990940094 -0.9739999771118164 -0.0015999999595806003 0.22669999301433563
          -0.8801000118255615 -0.0957999974489212 0.4650000035762787 0.8004999756813049 -0.5895000100135803 -0.10819999873638153
          0.7372000217437744 -0.5706999897956848 0.3617999851703644 0.8906000256538391 -0.29809999465942383 -0.3434999883174896
          0.9180999994277954 -0.3537999987602234 -0.1785999983549118 0.9664000272750854 -0.1639000028371811 0.1981000006198883
          0.9646999835968018 -0.19939999282360077 -0.1720000058412552 0.7842000126838684 -0.15070000290870667 -0.6018999814987183
          0.9120000004768372 -0.04800000041723251 -0.4072999954223633 0.9057999849319458 0.06509999930858612 -0.4185999929904938
          -0.9345999956130981 0.17990000545978546 0.3068999946117401 -0.8873000144958496 0.2443999946117401 0.3912000060081482
          -0.871399998664856 0.14959999918937683 0.46720001101493835 -0.828000009059906 -0.0066999997943639755 -0.560699999332428
          -0.9782000184059143 0.20419999957084656 0.03840000182390213 -0.9998999834060669 0.009700000286102295 0.010300000198185444
          0.9248999953269958 0.3314000070095062 -0.186599999666214 0.9955000281333923 0.0044999998062849045 -0.09449999779462814
          0.9866999983787537 -0.057100001722574234 -0.15209999680519104 -0.17399999499320984 0.20110000669956207 0.9639999866485596
          0.14339999854564667 -0.044599998742341995 0.9886999726295471 0.3075000047683716 0.20250000059604645 0.9297000169754028
          -0.3598000109195709 0.21889999508857727 0.9070000052452087 -0.0015999999595806003 0.2872999906539917 0.9577999711036682
          0.5722000002861023 -0.19689999520778656 0.7961000204086304 0.6437000036239624 0.22349999845027924 0.7318999767303467
          0.6193000078201294 0.23720000684261322 0.7484999895095825 0.6144000291824341 0.19939999282360077 0.7634000182151794
          0.7050999999046326 -0.32350000739097595 -0.6309999823570251 0.739799976348877 -0.29499998688697815 -0.6047999858856201
          0.7541999816894531 -0.3093000054359436 -0.5792999863624573 0.0551999993622303 -0.2506999969482422 -0.9664999842643738
          -0.1729000061750412 -0.2451000064611435 -0.9539999961853027 -0.1518000066280365 -0.2793999910354614 -0.9480999708175659
          -0.3716000020503998 -0.08839999884366989 -0.9241999983787537 -0.6385999917984009 -0.11259999871253967 -0.7613000273704529
          -0.4415000081062317 -0.1429000049829483 -0.8858000040054321 0.9930999875068665 0.08789999783039093 0.07699999958276749
          0.9995999932289124 0.022700000554323196 -0.01590000092983246 0.9968000054359436 0.0575999990105629 0.056299999356269836
          -0.7332000136375427 0.3596999943256378 -0.5770000219345093 -0.4767000079154968 0.6593999862670898 -0.5813000202178955
          -0.919700026512146 0.3767000138759613 0.11079999804496765 0.0940999984741211 0.21400000154972076 0.9722999930381775
          0.0414000004529953 0.22990000247955322 0.9722999930381775 0.10080000013113022 0.17419999837875366 0.9794999957084656
          -0.7828999757766724 0.19419999420642853 0.5910999774932861 -0.6521000266075134 0.1949000060558319 0.732699990272522
          -0.46059998869895935 0.28760001063346863 0.8398000001907349 -0.7466999888420105 0.6610000133514404 0.07460000365972519
          -0.737500011920929 0.6326000094413757 -0.23659999668598175 -0.44530001282691956 0.8496999740600586 -0.28209999203681946
          -0.4650000035762787 0.8396999835968018 -0.28040000796318054 -0.4117000102996826 0.8331999778747559 -0.3693000078201294
          -0.43650001287460327 0.845300018787384 -0.30809998512268066 -0.5827999711036682 0.05909999832510948 -0.8104000091552734
          -0.6126999855041504 -0.030400000512599945 -0.7896999716758728 -0.6355000138282776 -0.02930000051856041 -0.7714999914169312
          0.6988999843597412 0.1996999979019165 -0.6868000030517578 0.8841999769210815 0.4027999937534332 -0.23669999837875366
          0.5791000127792358 0.4122999906539917 -0.7032999992370605 -0.6186000108718872 -0.5914999842643738 -0.5170999765396118
          -0.45100000500679016 -0.8903999924659729 0.0625 -0.5162000060081482 -0.8497999906539917 -0.10679999738931656
          -0.4848000109195709 -0.07530000060796738 0.871399998664856 -0.499099999666214 0.05389999970793724 0.8648999929428101
          -0.3449000120162964 0.4081000089645386 0.845300018787384 0.4422000050544739 -0.8557000160217285 -0.2687999904155731
          -0.07680000364780426 -0.996999979019165 0.007600000128149986 0.3847000002861023 -0.9228000044822693 -0.018699999898672104
          -0.8299999833106995 0.5525000095367432 0.07720000296831131 -0.5202999711036682 0.8442999720573425 0.12800000607967377
          -0.31139999628067017 0.5238000154495239 0.792900025844574 -0.803600013256073 0.392300009727478 -0.44760000705718994
          -0.9104999899864197 0.3871999979019165 -0.14470000565052032 -0.8123000264167786 0.5031999945640564 -0.2948000133037567
          -0.8626999855041504 -0.37860000133514404 -0.3353999853134155 -0.8683000206947327 -0.3456999957561493 -0.3555999994277954
          -0.8748000264167786 -0.40959998965263367 -0.258899986743927 0.5802000164985657 -0.26899999380111694 -0.7687000036239624
          0.6937000155448914 -0.46709999442100525 -0.54830002784729 0.6491000056266785 -0.23960000276565552 -0.7218999862670898
          0.362199991941452 0.18230000138282776 0.9140999913215637 0.4020000100135803 0.17659999430179596 0.8984000086784363
          0.3310000002384186 0.1468999981880188 0.9320999979972839 0.46880000829696655 -0.8532000184059143 0.22859999537467957
          0.3896999955177307 -0.8966000080108643 0.21050000190734863 0.6317999958992004 -0.7328000068664551 0.25279998779296875
          -0.8198999762535095 -0.571399986743927 -0.03689999878406525 -0.5034999847412109 -0.8144000172615051 0.28859999775886536
          -0.436599999666214 -0.7940000295639038 0.4230000078678131 0.6676999926567078 -0.7371000051498413 0.10450000315904617
          0.8950999975204468 -0.4104999899864197 0.17419999837875366 0.7002000212669373 -0.4966000020503998 0.5127999782562256
          -0.8725000023841858 -0.19120000302791595 -0.4496999979019165 -0.9793000221252441 0.2012999951839447 0.020099999383091927
          -0.8877999782562256 -0.45879998803138733 0.03739999979734421 -0.42879998683929443 -0.5430999994277954 -0.7218999862670898
          -0.2896000146865845 -0.8097000122070312 -0.5105000138282776 -0.2727000117301941 -0.9383999705314636 -0.21230000257492065
          0.657800018787384 -0.47909998893737793 0.5810999870300293 -0.006500000134110451 -0.9919000267982483 0.12690000236034393
          0.011800000444054604 -0.8136000037193298 0.5813000202178955 0.6025999784469604 0.15410000085830688 0.7829999923706055
          0.635699987411499 0.16120000183582306 0.7548999786376953 0.5202999711036682 0.14180000126361847 0.8421000242233276
          0.13030000030994415 -0.1485999971628189 0.9803000092506409 0.45339998602867126 -0.5985999703407288 0.6603999733924866
          -0.7166000008583069 -0.2662000060081482 0.6446999907493591 -0.9416000247001648 -0.17219999432563782 -0.28940001130104065
          -0.7953000068664551 0.3978999853134155 0.45730000734329224 -0.9950000047683716 -0.03680000081658363 0.09300000220537186
          -0.6671000123023987 -0.1931000053882599 -0.7195000052452087 -0.5742999911308289 -0.12690000236034393 -0.8087000250816345
          -0.6507999897003174 -0.1979999989271164 -0.7329999804496765 -0.23999999463558197 -0.08179999887943268 -0.9672999978065491
          0.08429999649524689 -0.1451999992132187 -0.98580002784729 -0.4643000066280365 -0.16599999368190765 -0.8700000047683716
          -0.5825999975204468 -0.156700000166893 -0.7975000143051147 -0.6115000247955322 -0.15889999270439148 -0.7750999927520752
          -0.6075999736785889 -0.12359999865293503 -0.784500002861023 0.19779999554157257 -0.22050000727176666 -0.9550999999046326
          0.296999990940094 -0.23360000550746918 -0.9258999824523926 0.4185999929904938 -0.21559999883174896 -0.8822000026702881
          0.41499999165534973 -0.8999000191688538 -0.13420000672340393 0.1941000074148178 -0.9383000135421753 0.28619998693466187
          0.16290000081062317 -0.972100019454956 0.16850000619888306 0.6894000172615051 -0.03229999914765358 0.7235999703407288
          0.824400007724762 0.03519999980926514 0.5649999976158142 0.744700014591217 -0.4169999957084656 0.5210999846458435
          0.3467999994754791 0.5493000149726868 0.7602999806404114 0.23639999330043793 0.522599995136261 0.819100022315979
          0.16529999673366547 0.5576000213623047 0.8134999871253967 -0.5415999889373779 0.060499999672174454 -0.8385000228881836
          -0.03849999979138374 -0.05460000038146973 -0.9977999925613403 -0.6292999982833862 0.44449999928474426 -0.637499988079071
          0.9851999878883362 -0.03620000183582306 0.16760000586509705 0.9804999828338623 0.005400000140070915 0.19660000503063202
          0.9440000057220459 -0.3215999901294708 -0.07370000332593918 -0.5619999766349792 0.7778000235557556 -0.2815000116825104
          -0.4343999922275543 0.8985000252723694 0.06340000033378601 -0.4641000032424927 0.8848999738693237 -0.03909999877214432
          -0.08780000358819962 0.9524999856948853 -0.29170000553131104 -0.0015999999595806003 0.9376000165939331 -0.3476000130176544
          -0.20649999380111694 0.9634000062942505 -0.17069999873638153 -0.6812000274658203 0.04540000110864639 0.7307000160217285
          -0.7457000017166138 0.1891999989748001 0.6388000249862671 -0.9602000117301941 -0.11349999904632568 0.25529998540878296
          0.3630000054836273 0.9147999882698059 0.17730000615119934 0.21160000562667847 0.9771000146865845 -0.022199999541044235
          0.14920000731945038 0.9886000156402588 0.01810000091791153 -0.10029999911785126 -0.16120000183582306 0.9818000197410583
          -0.01899999938905239 0.17069999873638153 0.9850999712944031 -0.19059999287128448 -0.41519999504089355 0.8895000219345093
          -0.9843000173568726 0.17010000348091125 -0.0478999987244606 -0.9628000259399414 0.1451999992132187 -0.22789999842643738
          -0.9907000064849854 0.08060000091791153 -0.10999999940395355 -0.7904000282287598 -0.22949999570846558 -0.5680000185966492
          -0.6341999769210815 -0.23520000278949738 -0.7365000247955322 -0.7332000136375427 -0.2363000065088272 -0.6376000046730042
          -0.0738999992609024 -0.9972000122070312 -0.014800000004470348 -0.25360000133514404 -0.9455000162124634 -0.20409999787807465
          -0.37860000133514404 -0.9168999791145325 -0.1264999955892563 -0.974399983882904 0.07069999724626541 -0.2134000062942505
          -0.9301999807357788 -0.03280000016093254 -0.36550000309944153 -0.9854999780654907 0.025200000032782555 -0.1678999960422516
          0.4860000014305115 0.5759000182151794 -0.6574000120162964 0.6743999719619751 0.2800999879837036 -0.6830999851226807
          0.4918999969959259 0.2639000117778778 -0.8296999931335449 -0.6290000081062317 0.34369999170303345 0.6973000168800354
          -0.5810999870300293 0.7196999788284302 0.3799999952316284 -0.646399974822998 0.2669000029563904 0.7148000001907349
          0.044599998742341995 -0.31220000982284546 0.9490000009536743 0.5663999915122986 -0.39730000495910645 0.722000002861023
          -0.47429999709129333 -0.6668000221252441 0.5748000144958496 -0.9631999731063843 -0.002199999988079071 -0.2687000036239624
          -0.9476000070571899 -0.15199999511241913 0.2809000015258789 -0.42100000381469727 0.8151000142097473 -0.3978999853134155
          0.7919999957084656 0.6062999963760376 -0.07180000096559525 0.29350000619888306 0.6014000177383423 0.7430999875068665
          0.5315999984741211 0.7254999876022339 0.43720000982284546 0.39500001072883606 0.8554999828338623 0.33469998836517334
          0.3472999930381775 0.7824000120162964 0.5169000029563904 0.0925000011920929 0.6008999943733215 0.7940000295639038
          -0.00800000037997961 -0.1662999987602234 -0.9860000014305115 0.08020000159740448 -0.11349999904632568 -0.9902999997138977
          0.2892000079154968 0.004999999888241291 -0.9573000073432922 0.07670000195503235 -0.05990000069141388 -0.9952999949455261
          -0.1128000020980835 -0.1151999980211258 -0.9868999719619751 -0.03720000013709068 -0.4832000136375427 -0.8747000098228455
          -0.03669999912381172 -0.9919999837875366 0.120899997651577 0.06499999761581421 -0.9908000230789185 0.11900000274181366
          -0.0625 -0.9937999844551086 0.09139999747276306 0.1720999926328659 -0.9735000133514404 0.15039999783039093
          0.06210000067949295 -0.9947999715805054 -0.08009999990463257 0.9517999887466431 0.20080000162124634 -0.23190000653266907
          0.9718999862670898 0.15680000185966492 0.17569999396800995 0.9901000261306763 0.07890000194311142 -0.1160999983549118
          -0.7653999924659729 0.46799999475479126 -0.44179999828338623 -0.7924000024795532 0.43860000371932983 -0.42399999499320984
          -0.35429999232292175 0.2328999936580658 0.9057000279426575 -0.34689998626708984 0.22619999945163727 0.9101999998092651
          -0.8709999918937683 0.09619999676942825 0.48170000314712524 -0.9200999736785889 0.09920000284910202 0.37880000472068787
          -0.9053000211715698 0.08950000256299973 0.41510000824928284 -0.7002999782562256 0.1770000010728836 0.6916000247001648
          -0.8044999837875366 0.16009999811649323 0.5720000267028809 -0.29249998927116394 0.5738999843597412 0.7649000287055969
          0.5230000019073486 -0.05770000070333481 0.8503999710083008 0.876800000667572 0.23839999735355377 0.41769999265670776
          0.9519000053405762 -0.11410000175237656 0.2842000126838684 0.9070000052452087 -0.20559999346733093 -0.36739999055862427
          0.7031999826431274 -0.7035999894142151 -0.10270000249147415 0.5662999749183655 -0.6133999824523926 -0.550599992275238
          0.18449999392032623 0.8352000117301941 0.5180000066757202 -0.2433999925851822 0.18490000069141388 0.9520999789237976
          -0.11540000140666962 0.4138000011444092 0.902999997138977 -0.08950000256299973 -0.9937999844551086 0.06560000032186508
          0.00930000003427267 -0.9929999709129333 0.11779999732971191 0.003599999938160181 -0.9921000003814697 0.12520000338554382
          0.11330000311136246 -0.9936000108718872 0.0032999999821186066 0.8313000202178955 0.07150000333786011 0.5511999726295471
          0.8378999829292297 0.03009999915957451 0.5450000166893005 0.5109000205993652 -0.164000004529953 0.8439000248908997
          0.6049000024795532 -0.18529999256134033 0.774399995803833 0.6582000255584717 -0.1956000030040741 0.7269999980926514
          -0.3547999858856201 -0.932200014591217 0.07209999859333038 -0.16429999470710754 -0.986299991607666 0.015300000086426735
          -0.2867000102996826 -0.8953999876976013 0.34060001373291016 -0.878600001335144 0.10000000149011612 0.46700000762939453
          -0.9955000281333923 0.0731000006198883 0.06109999865293503 -0.6434000134468079 0.6334999799728394 0.42969998717308044
          -0.9118000268936157 0.032099999487400055 -0.4092999994754791 -0.979200005531311 0.2029000073671341 -0.007400000002235174
          -0.23229999840259552 -0.062300000339746475 -0.9707000255584717 -0.9506999850273132 -0.17870000004768372 -0.2533999979496002
          -0.33009999990463257 -0.21539999544620514 -0.9190999865531921 -0.37540000677108765 0.5386999845504761 -0.7542999982833862
          -0.30070000886917114 0.5526999831199646 -0.7771999835968018 -0.6671000123023987 0.6019999980926514 -0.43880000710487366
          -0.20890000462532043 -0.1459999978542328 0.9670000076293945 -0.4415999948978424 -0.022700000554323196 0.8968999981880188
          -0.47940000891685486 -0.3456999957561493 0.8066999912261963 0.8907999992370605 -0.10949999839067459 0.4410000145435333
          0.8066999912261963 -0.24420000612735748 0.538100004196167 0.8859000205993652 -0.28780001401901245 0.36390000581741333
          -0.8090999722480774 0.25049999356269836 -0.5317000150680542 -0.8115000128746033 0.35429999232292175 -0.46470001339912415
          -0.8565000295639038 0.21160000562667847 -0.4708000123500824 0.8483999967575073 -0.4341999888420105 0.3027999997138977
          0.8522999882698059 -0.4812999963760376 0.2046000063419342 0.8788999915122986 -0.451200008392334 0.1550000011920929
          0.8988000154495239 0.4138000011444092 -0.14429999887943268 0.9053000211715698 0.33239999413490295 -0.26440000534057617
          0.8652999997138977 0.3984000086784363 -0.3041999936103821 0.9103999733924866 -0.1965000033378601 -0.36410000920295715
          0.691100001335144 -0.5637999773025513 -0.4521999955177307 0.6916999816894531 -0.57669997215271 -0.43459999561309814
          -0.6478000283241272 0.04650000110268593 0.7603999972343445 -0.6970999836921692 0.21140000224113464 0.6851000189781189