<?xml version="1.0"?>
<VTKFile type="PolyData" version="0.1" byte_order="LittleEndian" header_type="UInt32" compressor="vtkZLibDataCompressor">
  <PolyData>
    <FieldData>
      <Array type="String" Name="MaterialNames" NumberOfTuples="1" format="ascii">
        109 97 116 101 114 105 97 108 95 48 0
      </Array>
      <Array type="String" Name="MaterialLibraries" NumberOfTuples="1" format="ascii">
        109 97 116 101 114 105 97 108 46 109 116 108 0
      </Array>
    </FieldData>
    <Piece NumberOfPoints="12680" NumberOfVerts="0" NumberOfLines="0" NumberOfStrips="0" NumberOfPolys="25305">
      <PointData Normals="Normals">
        <DataArray type="Float32" Name="Normals" NumberOfComponents="3" format="ascii" RangeMin="0.9999252207852727" RangeMax="1.0000811251572306">
          -0.3084000051021576 -0.9430999755859375 -0.12409999966621399 -0.4244999885559082 -0.6812000274658203 -0.5964000225067139
          -0.19439999759197235 -0.9236999750137329 -0.3301999866962433 -0.8567000031471252 -0.42890000343322754 -0.2865000069141388
          -0.6527000069618225 -0.4375999867916107 -0.618399977684021 -0.6557000279426575 -0.7398999929428101 -0.15049999952316284
          -0.11410000175237656 -0.9921000003814697 -0.05220000073313713 -0.3684000074863434 -0.9293000102043152 -0.025699999183416367
          -0.6721000075340271 -0.7390000224113464 0.04600000008940697 -0.9276999831199646 -0.3734000027179718 -0.002099999925121665
          -0.36899998784065247 -0.9279000163078308 -0.05380000174045563 -0.03449999913573265 -0.9854999780654907 -0.16580000519752502
          -0.8032000064849854 -0.5710999965667725 0.16949999332427979 -0.9101999998092651 -0.3458999991416931 0.22779999673366547
          -0.19009999930858612 -0.9790999889373779 -0.0723000019788742 0.04450000077486038 -0.9801999926567078 -0.1931000053882599
          0.15219999849796295 -0.9865999817848206 -0.05920000001788139 -0.6122999787330627 -0.7893000245094299 0.04600000008940697
          -0.90420001745224 -0.4000000059604645 0.14959999918937683 -0.14830000698566437 -0.9879000186920166 0.04540000110864639
          0.32010000944137573 -0.9448999762535095 0.06859999895095825 -0.5889000296592712 -0.8066999912261963 0.048500001430511475
          -0.8759999871253967 -0.4666999876499176 0.12189999967813492 -0.6240000128746033 -0.7813000082969666 0.014600000344216824
          -0.9133999943733215 -0.40450000762939453 0.044599998742341995 0.359499990940094 -0.9251999855041504 0.12129999697208405
          -0.5860000252723694 -0.8091999888420105 0.0414000004529953 -0.907800018787384 -0.41929998993873596 -0.004999999888241291
          0.06639999896287918 -0.9743000268936157 0.21539999544620514 -0.3028999865055084 -0.9519000053405762 0.04699999839067459
          -0.8281999826431274 -0.5604000091552734 -0.008500000461935997 -0.026399999856948853 -0.9787999987602234 -0.20319999754428864
          -0.4855000078678131 -0.8723999857902527 -0.05640000104904175 -0.7882000207901001 -0.6154000163078308 -0.0020000000949949026
          -0.19280000030994415 -0.9753000140190125 -0.10729999840259552 0.09229999780654907 -0.9417999982833862 -0.3231000006198883
          0.12639999389648438 -0.9818000197410583 -0.14169999957084656 -0.6050999760627747 -0.7935000061988831 0.06480000168085098
          -0.8492000102996826 -0.5041999816894531 0.15710000693798065 -0.1656000018119812 -0.9715999960899353 0.16910000145435333
          0.10920000076293945 -0.9685999751091003 0.22349999845027924 -0.5616999864578247 -0.8051000237464905 0.19050000607967377
          -0.8665000200271606 -0.41670000553131104 0.27489998936653137 -0.06920000165700912 -0.9059000015258789 0.41780000925064087
          -0.29760000109672546 -0.7437000274658203 0.5986999869346619 -0.45019999146461487 -0.7976999878883362 0.40130001306533813
          -0.8190000057220459 -0.39959999918937683 0.4117000102996826 -0.6189000010490417 -0.4366999864578247 0.6528000235557556
          -0.225600004196167 -0.9147999882698059 -0.335099995136261 -0.1477999985218048 -0.6899999976158142 -0.7085999846458435
          0.006599999964237213 -0.9613999724388123 -0.2752000093460083 -0.3050000071525574 -0.8884000182151794 -0.34299999475479126
          -0.28839999437332153 -0.5494999885559082 -0.7840999960899353 -0.17470000684261322 -0.8924000263214111 -0.41609999537467957
          -0.29109999537467957 -0.527999997138977 -0.7978000044822693 -0.38350000977516174 -0.1656000018119812 -0.9085999727249146
          -0.6420000195503235 -0.10109999775886536 -0.7599999904632568 -0.11640000343322754 -0.9894000291824341 -0.0869000032544136
          0.06289999932050705 -0.9976999759674072 -0.025499999523162842 -0.2777000069618225 -0.9592000246047974 -0.05389999970793724
          -0.1647000014781952 -0.9767000079154968 -0.13779999315738678 -0.8684999942779541 -0.1168999969959259 -0.48170000314712524
          -0.9690999984741211 -0.04919999837875366 -0.241799995303154 -0.09570000320672989 -0.9934999942779541 0.0617000013589859
          0.09489999711513519 -0.9882000088691711 0.12039999663829803 -0.9991000294685364 -0.007499999832361937 0.040699999779462814
          0.034299999475479126 -0.9681000113487244 0.24809999763965607 0.21150000393390656 -0.8944000005722046 0.39399999380111694
          -0.2110999971628189 -0.9740999937057495 0.0812000036239624 -0.08640000224113464 -0.9950000047683716 -0.051100000739097595
          -0.9690999984741211 0.026000000536441803 0.2451000064611435 0.4399000108242035 -0.609000027179718 0.660099983215332
          0.8222000002861023 -0.5360999703407288 0.19130000472068787 0.14569999277591705 -0.9865999817848206 0.0729999989271164
          -0.9700000286102295 -0.1362999975681305 0.2011999934911728 -0.9574999809265137 -0.053599998354911804 0.2833000123500824
          0.41990000009536743 -0.9075000286102295 -0.013100000098347664 0.8600000143051147 -0.5009999871253967 0.09669999778270721
          -0.9850999712944031 -0.08389999717473984 0.15049999952316284 -0.9674999713897705 -0.07360000163316727 0.241799995303154
          0.48829999566078186 -0.867900013923645 0.09130000323057175 -0.9958000183105469 -0.08959999680519104 0.016499999910593033
          0.7005000114440918 -0.6528000235557556 0.2883000075817108 0.8342000246047974 -0.5353000164031982 0.13249999284744263
          -0.9789000153541565 -0.18940000236034393 -0.0763000026345253 0.18410000205039978 -0.9797999858856201 0.0786999985575676
          0.7531999945640564 -0.6406999826431274 -0.14900000393390656 -0.949999988079071 -0.3095000088214874 -0.04010000079870224
          -0.9869999885559082 -0.1363999992609024 -0.08449999988079071 -0.9825000166893005 -0.13580000400543213 -0.12720000743865967
          0.17479999363422394 -0.9279000163078308 -0.3294000029563904 0.7027000188827515 -0.5295000076293945 -0.47519999742507935
          0.4372999966144562 -0.6101999878883362 -0.6607000231742859 0.08049999922513962 -0.9775999784469604 -0.19460000097751617
          -0.9383999705314636 -0.335099995136261 0.08429999649524689 -0.9919000267982483 -0.11860000342130661 0.04560000076889992
          -0.11860000342130661 -0.8675000071525574 -0.4832000136375427 0.17080000042915344 -0.445499986410141 -0.8787999749183655
          0.2766000032424927 -0.8245000243186951 -0.4936999976634979 -0.10170000046491623 -0.9298999905586243 -0.35350000858306885
          0.22669999301433563 -0.5328999757766724 -0.8152999877929688 0.05009999871253967 -0.9710000157356262 -0.2337999939918518
          -0.911899983882904 -0.2678000032901764 0.3109000027179718 -0.9624999761581421 -0.10859999805688858 0.2485000044107437
          -0.018200000748038292 -0.9983000159263611 -0.054999999701976776 0.24250000715255737 -0.9624999761581421 -0.121799997985363
          -0.273499995470047 -0.9553999900817871 -0.11110000312328339 -0.08179999887943268 -0.9965999722480774 -0.008500000461935997
          -0.9010999798774719 -0.08810000121593475 0.4246000051498413 -0.870199978351593 -0.10679999738931656 0.4810999929904938
          0.13699999451637268 -0.9776999950408936 0.15940000116825104 0.06319999694824219 -0.9918000102043152 0.11140000075101852
          -0.16539999842643738 -0.9833999872207642 0.07500000298023224 -0.3301999866962433 -0.9376999735832214 0.10760000348091125
          -0.13330000638961792 -0.9370999932289124 0.32269999384880066 -0.8288000226020813 -0.005499999970197678 0.559499979019165
          -0.16189999878406525 -0.9675999879837036 0.19359999895095825 0.09380000084638596 -0.9729999899864197 0.210999995470047
          -0.39980000257492065 -0.8878999948501587 0.227400004863739 -0.46050000190734863 -0.7595999836921692 0.4593000113964081
          -0.6941999793052673 -0.19259999692440033 0.6934999823570251 -0.6898000240325928 -0.36640000343322754 0.6244999766349792
          -0.07959999889135361 -0.9150000214576721 0.39559999108314514 -0.45260000228881836 -0.5910000205039978 0.6676999926567078
          -0.39309999346733093 -0.1437000036239624 0.9082000255584717 -0.5016999840736389 -0.33469998836517334 0.7976999878883362
          -0.13689999282360077 -0.48080000281333923 0.866100013256073 -0.27379998564720154 -0.7646999955177307 -0.5834000110626221
          -0.15539999306201935 -0.40070000290870667 -0.902999997138977 -0.11020000278949738 -0.6784999966621399 -0.7263000011444092
          -0.2903999984264374 -0.5389999747276306 -0.7907000184059143 -0.29490000009536743 -0.35030001401901245 -0.8889999985694885
          -0.39340001344680786 -0.3393999934196472 -0.8543999791145325 -0.18140000104904175 -0.9380999803543091 -0.29499998688697815
          -0.0674000009894371 -0.7750999927520752 -0.6281999945640564 0.02850000001490116 -0.9732000231742859 -0.22840000689029694
          -0.24390000104904175 -0.9312000274658203 -0.27090001106262207 -0.1777999997138977 -0.9315999746322632 -0.31690001487731934
          -0.31700000166893005 -0.22130000591278076 -0.9222000241279602 -0.2838999927043915 -0.15289999544620514 -0.9466000199317932
          -0.829800009727478 -0.011300000362098217 -0.5579000115394592 -0.5842999815940857 0.006099999882280827 -0.8115000128746033
          -0.8281000256538391 0.040800001472234726 -0.5590999722480774 -0.12960000336170197 -0.9904999732971191 -0.045499999076128006
          0.052799999713897705 -0.9980999827384949 -0.032099999487400055 -0.2840000092983246 -0.9585000276565552 -0.023900000378489494
          -0.1307000070810318 -0.988099992275238 -0.08110000193119049 -0.9758999943733215 -0.014000000432133675 -0.21780000627040863
          -0.1386999934911728 -0.9832000136375427 0.11840000003576279 0.0723000019788742 -0.9908999800682068 0.1137000024318695
          -0.28049999475479126 -0.9445000290870667 0.17110000550746918 -0.10480000078678131 -0.9883999824523926 0.10999999940395355
          -0.9886999726295471 0.10300000011920929 0.10920000076293945 -0.13040000200271606 -0.9362000226974487 0.3262999951839447
          0.12439999729394913 -0.8977000117301941 0.4226999878883362 -0.30390000343322754 -0.8205000162124634 0.48420000076293945
          -0.04479999840259552 -0.8960999846458435 0.4415000081062317 -0.9545999765396118 0.13619999587535858 0.26499998569488525
          -0.09279999881982803 -0.5135999917984009 0.8529999852180481 -0.10350000113248825 -0.258899986743927 0.9603999853134155
          0.2533999979496002 -0.34929999709129333 0.9021000266075134 0.4738999903202057 0.020099999383091927 0.8804000020027161
          0.8479999899864197 0.04520000144839287 0.527999997138977 0.9955000281333923 0.004000000189989805 0.094200000166893
          0.9466000199317932 -0.011900000274181366 0.3221000134944916 -0.9811000227928162 0.08399999886751175 0.17419999837875366
          0.9998000264167786 -0.010700000450015068 -0.01510000042617321 -0.9918000102043152 -0.07020000368356705 0.1071000024676323
          -0.9890000224113464 -0.012400000356137753 0.14740000665187836 0.9958999752998352 0.024399999529123306 0.08730000257492065
          0.9574000239372253 -0.06549999862909317 0.28119999170303345 0.9902999997138977 -0.011699999682605267 0.1386999934911728
          -0.9979000091552734 -0.06360000371932983 -0.012400000356137753 0.9933000206947327 -0.09390000253915787 0.06759999692440033
          -0.9937000274658203 -0.03750000149011612 -0.10540000349283218 0.9840999841690063 -0.06310000270605087 -0.16580000519752502
          -0.9991000294685364 -0.002099999925121665 -0.041999999433755875 0.7088000178337097 -0.12449999898672104 -0.6944000124931335
          0.7695000171661377 -0.08560000360012054 -0.6328999996185303 -0.9958999752998352 0.009800000116229057 0.08969999849796295
          0.19220000505447388 -0.12890000641345978 -0.9728999733924866 0.26109999418258667 -0.5771999955177307 -0.7736999988555908
          0.30140000581741333 -0.10130000114440918 -0.9480999708175659 -0.9675999879837036 0.026499999687075615 0.25099998712539673
          -0.2110999971628189 -0.9162999987602234 -0.3402999937534332 -0.04479999840259552 -0.6554999947547913 -0.7538999915122986
          0.0038999998942017555 -0.9670000076293945 -0.2549000084400177 -0.094200000166893 -0.9542999863624573 -0.28349998593330383
          -0.042899999767541885 -0.5864999890327454 -0.8087999820709229 -0.8892999887466431 -0.05180000141263008 0.4542999863624573
          -0.12860000133514404 -0.9911999702453613 -0.03280000016093254 0.08619999885559082 -0.9941999912261963 0.0640999972820282
          -0.27219998836517334 -0.9611999988555908 -0.044199999421834946 -0.000699999975040555 -0.9980999827384949 0.062300000339746475
          -0.7932999730110168 0.033799998462200165 0.6079000234603882 -0.8044999837875366 -0.04010000079870224 0.5925999879837036
          -0.19439999759197235 -0.965399980545044 0.1737000048160553 0.11860000342130661 -0.975600004196167 0.18490000069141388
          -0.1137000024318695 -0.9778000116348267 0.1761000007390976 -0.6292999982833862 0.05820000171661377 0.7749999761581421
          -0.7175999879837036 0.07930000126361847 0.6919000148773193 -0.017899999395012856 -0.9103999733924866 0.4133000075817108
          0.5376999974250793 -0.5855000019073486 0.6065999865531921 -0.13420000672340393 -0.5228999853134155 0.8417999744415283
          0.07339999824762344 -0.6204000115394592 0.7807999849319458 -0.367900013923645 0.13030000030994415 0.9207000136375427
          0.2337000072002411 -0.4205000102519989 0.8766999840736389 0.08780000358819962 0.029999999329447746 0.9957000017166138
          -0.29100000858306885 0.13189999759197235 0.9476000070571899 -0.03150000050663948 -0.328900009393692 -0.9437999725341797
          -0.025200000032782555 -0.38600000739097595 -0.9221000075340271 -0.13729999959468842 -0.20900000631809235 -0.9682000279426575
          -0.24809999763965607 -0.18870000541210175 -0.9502000212669373 -0.3400000035762787 -0.18359999358654022 -0.9222999811172485
          -0.36730000376701355 -0.1462000012397766 -0.9185000061988831 0.07199999690055847 -0.7529000043869019 -0.65420001745224
          -0.15559999644756317 -0.9296000003814697 -0.33399999141693115 0.00039999998989515007 -0.5828999876976013 -0.8126000165939331
          -0.03189999982714653 -0.942300021648407 -0.33329999446868896 -0.03680000081658363 -0.6298999786376953 -0.7757999897003174
          -0.016200000420212746 -0.387800008058548 -0.9215999841690063 -0.3059000074863434 -0.09459999948740005 -0.9473999738693237
          -0.34119999408721924 -0.04749999940395355 -0.9387999773025513 -0.5273000001907349 0.018699999898672104 -0.8495000004768372
          -0.7653999924659729 0.01080000028014183 -0.6434999704360962 -0.11710000038146973 -0.9818999767303467 -0.14890000224113464
          0.22110000252723694 -0.8661999702453613 -0.4481000006198883 0.17949999868869781 -0.958299994468689 -0.2223999947309494
          -0.23149999976158142 -0.9661999940872192 -0.11379999667406082 -0.08009999990463257 -0.9911999702453613 -0.10520000010728836
          -0.8884999752044678 -0.05559999868273735 -0.4553999900817871 -0.9976000189781189 -0.06480000168085098 -0.02280000038444996
          -0.979200005531311 0.027400000020861626 -0.20110000669956207 -0.16300000250339508 -0.9836999773979187 0.07580000162124634
          0.04670000076293945 -0.9987000226974487 -0.01850000023841858 -0.24709999561309814 -0.9573000073432922 0.14980000257492065
          -0.08980000019073486 -0.9934999942779541 0.06949999928474426 -0.9689000248908997 0.060100000351667404 0.23989999294281006
          -0.9839000105857849 -0.0010999999940395355 0.17870000004768372 -0.2061000019311905 -0.9415000081062317 0.26649999618530273
          -0.2513999938964844 -0.6793000102043152 0.6894000172615051 -0.045499999076128006 -0.932699978351593 0.3578999936580658
          0.0828000009059906 0.18170000612735748 0.9799000024795532 -0.08659999817609787 0.26159998774528503 0.9613000154495239
          0.06560000032186508 0.12060000002384186 0.9904999732971191 0.20260000228881836 0.11389999836683273 0.972599983215332
          -0.24210000038146973 -0.9502000212669373 -0.19589999318122864 -0.19130000472068787 -0.9253000020980835 -0.32739999890327454
          0.0414000004529953 -0.9919000267982483 -0.12039999663829803 -0.5781000256538391 -0.8156999945640564 -0.022600000724196434
          -0.27399998903274536 -0.6754999756813049 0.6845999956130981 0.03480000048875809 -0.3630000054836273 0.9311000108718872
          -0.050200000405311584 0.17659999430179596 0.9829999804496765 0.3612000048160553 0.11670000106096268 0.9251999855041504
          0.6643999814987183 0.07450000196695328 0.7436000108718872 -0.35010001063346863 -0.8822000026702881 0.3147999942302704
          -0.1818999946117401 -0.9164999723434448 0.3562999963760376 -0.699400007724762 -0.36739999055862427 0.613099992275238
          -0.8716999888420105 -0.45980000495910645 0.16940000653266907 0.9994999766349792 0.029999999329447746 0.012900000438094139
          0.9994999766349792 0.009999999776482582 0.030500000342726707 -0.998199999332428 0.015699999406933784 0.05810000002384186
          -0.4771000146865845 -0.5597000122070312 0.6776000261306763 0.9894000291824341 0.0754999965429306 0.1242000013589859
          -0.9944999814033508 -0.06880000233650208 -0.07919999957084656 0.9878000020980835 0.13300000131130219 0.0812000036239624
          -0.9955999851226807 -0.03180000185966492 -0.0885000005364418 0.9616000056266785 0.01810000091791153 -0.27399998903274536
          -0.9939000010490417 -0.07039999961853027 -0.08470000326633453 -0.9975000023841858 -0.06960000097751617 -0.012900000438094139
          -0.9898999929428101 -0.12520000338554382 -0.06589999794960022 0.8163999915122986 -0.07620000094175339 -0.5723999738693237
          -0.9882000088691711 -0.053599998354911804 0.14350000023841858 -0.9896000027656555 -0.1282999962568283 0.06469999998807907
          -0.3637000024318695 -0.8379999995231628 -0.4068000018596649 -0.3937999904155731 -0.6299999952316284 -0.6693000197410583
          -0.09870000183582306 -0.9628999829292297 -0.25119999051094055 -0.5404000282287598 -0.4546000063419342 -0.7080000042915344
          0.16040000319480896 -0.1728000044822693 -0.9718000292778015 0.17980000376701355 -0.03460000082850456 -0.9830999970436096
          0.2280000001192093 -0.07479999959468842 -0.97079998254776 0.5162000060081482 -0.0737999975681305 -0.8532999753952026
          -0.9502999782562256 -0.050200000405311584 0.3073999881744385 -0.9564999938011169 -0.1518000066280365 0.24899999797344208
          -0.18639999628067017 -0.9764999747276306 -0.10790000110864639 0.09070000052452087 -0.9958999752998352 0.0013000000035390258
          -0.5460000038146973 -0.5536999702453613 -0.6287000179290771 -0.4390000104904175 -0.8633000254631042 -0.249099999666214
          -0.32580000162124634 -0.881600022315979 -0.3416000008583069 -0.4142000079154968 -0.5562999844551086 -0.7203999757766724
          -0.012299999594688416 -0.8812000155448914 -0.4724999964237213 -0.09589999914169312 -0.503000020980835 -0.8589000105857849
          0.06109999865293503 -0.2596000134944916 -0.9638000130653381 -0.030400000512599945 -0.20569999516010284 -0.9781000018119812
          0.05959999933838844 -0.08500000089406967 -0.9945999979972839 -0.8711000084877014 -0.014100000262260437 0.4909999966621399
          -0.0925000011920929 -0.9897000193595886 0.10899999737739563 0.21979999542236328 -0.9577999711036682 0.18549999594688416
          -0.32919999957084656 -0.9416999816894531 0.06870000064373016 -0.33079999685287476 -0.9434000253677368 0.023099999874830246
          -0.0860000029206276 -0.9962999820709229 -0.0019000000320374966 -0.7185999751091003 0.004699999932199717 0.6953999996185303
          -0.7645999789237976 -0.03750000149011612 0.6434000134468079 0.09070000052452087 -0.8978999853134155 0.4307999908924103
          0.5026999711990356 -0.6033999919891357 0.6190000176429749 -0.19769999384880066 -0.9013000130653381 0.3853999972343445
          -0.25690001249313354 -0.9075999855995178 0.3319999873638153 0.004600000102072954 -0.9082000255584717 0.4185999929904938
          -0.5742999911308289 0.12620000541210175 0.808899998664856 -0.6674000024795532 0.12349999696016312 0.7343999743461609
          0.2409999966621399 -0.554099977016449 0.7968000173568726 0.08410000056028366 -0.5404000282287598 0.8371999859809875
          -0.07280000299215317 -0.5753999948501587 0.8145999908447266 0.09359999746084213 -0.3050000071525574 0.947700023651123
          0.40950000286102295 -0.13689999282360077 0.9020000100135803 0.5213000178337097 0.033900000154972076 0.8526999950408936
          0.3846000134944916 0.1809999942779541 0.9052000045776367 -0.14110000431537628 0.251800000667572 0.9574000239372253
          -0.1527000069618225 0.1648000031709671 0.974399983882904 -0.28189998865127563 0.12549999356269836 0.951200008392334
          -0.4959000051021576 0.14350000023841858 0.8565000295639038 0.1987999975681305 0.13210000097751617 0.9710999727249146
          0.1136000007390976 0.05040000006556511 0.9922000169754028 0.0869000032544136 0.18320000171661377 0.979200005531311
          0.04830000177025795 -0.2669999897480011 -0.9624999761581421 0.07010000199079514 -0.2662999927997589 -0.9613000154495239
          -0.021800000220537186 -0.218299999833107 -0.975600004196167 -0.11110000312328339 -0.16509999334812164 -0.9800000190734863
          -0.1973000019788742 -0.14239999651908875 -0.9699000120162964 -0.3294000029563904 -0.1542000025510788 -0.9315000176429749
          -0.38449999690055847 -0.1143999993801117 -0.9160000085830688 0.34540000557899475 -0.3228999972343445 -0.8812000155448914
          0.4196999967098236 -0.5936999917030334 -0.6866000294685364 0.1517000049352646 -0.2418999969959259 -0.9584000110626221
          0.032499998807907104 -0.2248000055551529 -0.9739000201225281 -0.7839999794960022 0.09189999848604202 -0.6139000058174133
          0.15850000083446503 -0.8873000144958496 -0.43299999833106995 0.45339998602867126 -0.5008000135421753 -0.7372999787330627
          0.3361999988555908 -0.6771000027656555 -0.654699981212616 -0.9646999835968018 0.1542000025510788 -0.2134999930858612
          -0.07100000232458115 -0.9453999996185303 -0.3181000053882599 0.3813999891281128 -0.6162999868392944 -0.6888999938964844
          0.33629998564720154 -0.7148000001907349 -0.613099992275238 0.023399999365210533 -0.9912999868392944 -0.12970000505447388
          -0.9812999963760376 0.12540000677108765 0.1460999995470047 0.10329999774694443 -0.9243000149726868 -0.3675000071525574
          0.5817999839782715 -0.5537999868392944 -0.5957000255584717 0.5489000082015991 -0.6269000172615051 -0.5529000163078308
          -0.2888000011444092 -0.957099974155426 -0.023499999195337296 -0.06769999861717224 0.2313999980688095 0.9704999923706055
          0.03420000150799751 0.15839999914169312 0.9868000149726868 0.20239999890327454 0.12389999628067017 0.9714000225067139
          -0.9516000151634216 0.05270000174641609 0.302700012922287 -0.9567000269889832 0.03400000184774399 0.2890999913215637
          0.10440000146627426 -0.9417999982833862 -0.319599986076355 0.5461000204086304 -0.5496000051498413 -0.6323000192642212
          0.5149000287055969 -0.7235999703407288 -0.45969998836517334 0.00139999995008111 -0.9753000140190125 -0.22110000252723694
          -0.626800000667572 -0.26440000534057617 0.7329999804496765 -0.29339998960494995 -0.06589999794960022 0.9537000060081482
          -0.055799998342990875 0.01889999955892563 0.9983000159263611 -0.06629999727010727 0.21140000224113464 0.9750999808311462
          0.3122999966144562 0.16339999437332153 0.9358000159263611 0.3714999854564667 0.23000000417232513 0.8995000123977661
          0.6891999840736389 0.13600000739097595 0.7117000222206116 0.9656000137329102 0.05380000174045563 0.25440001487731934
          -0.9660000205039978 -0.02250000089406967 0.25760000944137573 -0.0786999985575676 -0.9879999756813049 -0.13300000131130219
          0.544700026512146 -0.7172999978065491 -0.4343999922275543 -0.06970000267028809 -0.9975000023841858 0.012500000186264515
          -0.7213000059127808 -0.05130000039935112 0.6908000111579895 -0.6588000059127808 0.0738999992609024 0.7487000226974487
          0.9926999807357788 0.08619999885559082 0.08449999988079071 -0.9998000264167786 -0.015699999406933784 0.013899999670684338
          0.006300000008195639 -0.9894000291824341 -0.14509999752044678 0.4352000057697296 -0.8590999841690063 -0.2694000005722046
          -0.28700000047683716 -0.9575999975204468 -0.02500000037252903 -0.46939998865127563 -0.8619999885559082 0.1914999932050705
          -0.695900022983551 -0.43540000915527344 0.5710999965667725 -0.8101999759674072 -0.4666000008583069 0.3546999990940094
          0.9757999777793884 0.131400004029274 0.17470000684261322 0.07069999724626541 -0.9954000115394592 0.06499999761581421
          0.454800009727478 -0.888700008392334 0.05790000036358833 -0.3361000120639801 -0.9409000277519226 0.04149999842047691
          -0.5539000034332275 -0.8181999921798706 0.15399999916553497 -0.8482000231742859 -0.4781999886035919 0.22769999504089355
          0.9847000241279602 0.09669999778270721 0.1451999992132187 0.9952999949455261 0.09690000116825104 -0.007400000002235174
          0.9987000226974487 -0.04410000145435333 0.024299999698996544 -0.984000027179718 -0.14149999618530273 -0.10859999805688858
          -0.988099992275238 -0.11140000075101852 -0.10639999806880951 -0.9894000291824341 -0.09929999709129333 -0.1062999963760376
          0.22040000557899475 -0.9697999954223633 0.10459999740123749 -0.3093000054359436 -0.9509999752044678 0.0024999999441206455
          -0.8112000226974487 -0.5848000049591064 -0.009499999694526196 0.9682999849319458 -0.020099999383091927 -0.249099999666214
          -0.9969000220298767 -0.07569999992847443 -0.023000000044703484 -0.12409999966621399 -0.9922999739646912 -0.002400000113993883
          0.3894999921321869 -0.9143000245094299 0.11060000211000443 -0.545799970626831 -0.8179000020027161 -0.18209999799728394
          -0.7961999773979187 -0.4284999966621399 -0.42730000615119934 0.8646000027656555 -0.06109999865293503 -0.49869999289512634
          0.7700999975204468 -0.08500000089406967 -0.6322000026702881 -0.9911999702453613 -0.053700000047683716 0.12080000340938568
          -0.016699999570846558 -0.996999979019165 0.07620000094175339 0.49709999561309814 -0.8549000024795532 0.14830000698566437
          -0.3158000111579895 -0.9485999941825867 -0.019200000911951065 -0.5386999845504761 -0.6001999974250793 -0.5913000106811523
          -0.2973000109195709 -0.9222999811172485 -0.24690000712871552 -0.5085999965667725 -0.23819999396800995 -0.8274000287055969
          -0.5196999907493591 -0.26750001311302185 -0.8113999962806702 -0.5281000137329102 -0.21649999916553497 -0.8210999965667725
          -0.4675999879837036 -0.18209999799728394 -0.8650000095367432 -0.13510000705718994 -0.14399999380111694 -0.9803000092506409
          -0.03269999846816063 0.012500000186264515 -0.9994000196456909 0.07440000027418137 -0.10580000281333923 -0.991599977016449
          0.16110000014305115 -0.025800000876188278 -0.9865999817848206 0.444599986076355 -0.08640000224113464 -0.8916000127792358
          -0.9514999985694885 -0.07720000296831131 0.29789999127388 0.1688999980688095 -0.942799985408783 0.2874999940395355
          0.7027999758720398 -0.576200008392334 0.4172999858856201 -0.18240000307559967 -0.9677000045776367 0.17409999668598175
          -0.125 -0.991599977016449 0.03400000184774399 -0.3944000005722046 -0.2190999984741211 -0.8924000263214111
          -0.22290000319480896 -0.22630000114440918 -0.948199987411499 0.020899999886751175 -0.15449999272823334 -0.9878000020980835
          -0.042899999767541885 -0.05119999870657921 -0.9977999925613403 -0.8919000029563904 -0.06750000268220901 0.4471000134944916
          -0.8981999754905701 -0.08320000022649765 0.43160000443458557 0.5727999806404114 -0.5192000269889832 0.6344000101089478
          0.49399998784065247 -0.41019999980926514 0.7666000127792358 0.02800000086426735 -0.8948000073432922 0.445499986410141
          0.10779999941587448 -0.9110000133514404 0.39800000190734863 -0.6854000091552734 -0.03909999877214432 0.7271000146865845
          -0.7581999897956848 -0.004000000189989805 0.6520000100135803 -0.810699999332428 -0.028300000354647636 0.5848000049591064
          0.295199990272522 -0.4844000041484833 0.8234999775886536 0.30000001192092896 -0.40720000863075256 0.8626999855041504
          0.5072000026702881 -0.20550000667572021 0.836899995803833 0.5270000100135803 -0.12639999389648438 0.840399980545044
          0.49720001220703125 0.07169999927282333 0.8647000193595886 -0.5885999798774719 0.06830000132322311 0.8055999875068665
          -0.6226000189781189 0.014700000174343586 0.7824000120162964 0.4332999885082245 0.016499999910593033 0.9010999798774719
          0.25949999690055847 -0.01590000092983246 0.9656000137329102 0.19949999451637268 0.025499999523162842 0.9796000123023987