<?xml version="1.0"?>
<VTKFile type="PolyData" version="0.1" byte_order="LittleEndian" header_type="UInt32" compressor="vtkZLibDataCompressor">
  <PolyData>
    <FieldData>
      <Array type="String" Name="MaterialNames" NumberOfTuples="1" format="ascii">
        109 97 116 101 114 105 97 108 95 48 0
      </Array>
      <Array type="String" Name="MaterialLibraries" NumberOfTuples="1" format="ascii">
        109 97 116 101 114 105 97 108 46 109 116 108 0
      </Array>
    </FieldData>
    <Piece NumberOfPoints="17078" NumberOfVerts="0" NumberOfLines="0" NumberOfStrips="0" NumberOfPolys="34743">
      <PointData Normals="Normals">
        <DataArray type="Float32" Name="Normals" NumberOfComponents="3" format="ascii" RangeMin="0.9999206011633367" RangeMax="1.000081147489127">
          -0.3522000014781952 -0.08820000290870667 -0.9318000078201294 -0.18780000507831573 -0.030899999663233757 -0.9817000031471252
          -0.44029998779296875 -0.06560000032186508 -0.8955000042915344 0.2515999972820282 0.13079999387264252 0.958899974822998
          0.1444000005722046 0.09520000219345093 0.9848999977111816 0.34630000591278076 0.11010000109672546 0.9315999746322632
          -0.19210000336170197 0.79339998960495 -0.5776000022888184 -0.3490000069141388 0.5638999938964844 -0.7484999895095825
          -0.12449999898672104 0.604200005531311 -0.7871000170707703 0.47440001368522644 -0.00139999995008111 -0.880299985408783
          0.47839999198913574 0.02290000021457672 -0.8777999877929688 0.4154999852180481 -0.008799999952316284 -0.909600019454956
          0.5271000266075134 0.45989999175071716 -0.7146000266075134 0.7422999739646912 -0.0722000002861023 -0.6661999821662903
          0.9973000288009644 0.02319999970495701 -0.06960000097751617 -0.9843999743461609 -0.07109999656677246 0.1606999933719635
          -0.9366000294685364 -0.10239999741315842 0.3352000117301941 -0.8952999711036682 0.08699999749660492 0.43689998984336853
          0.1468999981880188 0.4562000036239624 -0.8776999711990356 0.3353999853134155 -0.01889999955892563 -0.9419000148773193
          0.36419999599456787 0.4593000113964081 -0.8101999759674072 0.9958999752998352 -0.08320000022649765 -0.03550000116229057
          0.9715999960899353 -0.1996999979019165 0.1266999989748001 -0.9247999787330627 -0.0617000013589859 0.37529999017715454
          -0.9933000206947327 -0.10279999673366547 0.05339999869465828 -0.9951000213623047 -0.07289999723434448 0.06689999997615814
          0.9652000069618225 -0.20970000326633453 -0.15620000660419464 0.9787999987602234 -0.20319999754428864 -0.024900000542402267
          0.6736000180244446 -0.7318999767303467 -0.10300000011920929 -0.7943000197410583 0.037300001829862595 0.6064000129699707
          -0.7307999730110168 0.056299999356269836 0.6802999973297119 -0.8194000124931335 0.03970000147819519 0.5717999935150146
          0.7426999807357788 0.026200000196695328 -0.6690999865531921 0.6686999797821045 0.07400000095367432 -0.739799976348877
          0.6333000063896179 0.055799998342990875 -0.7718999981880188 0.555899977684021 0.7623000144958496 -0.3314000070095062
          0.7447999715805054 0.6669999957084656 -0.019899999722838402 0.7937999963760376 0.5777000188827515 -0.19030000269412994
          0.28780001401901245 0.10360000282526016 0.9520999789237976 0.2370000034570694 0.05719999969005585 0.9697999954223633
          0.3172000050544739 0.10289999842643738 0.942799985408783 0.2020999938249588 0.6229000091552734 0.7556999921798706
          0.44589999318122864 0.5192999839782715 0.7290999889373779 0.6146000027656555 0.5685999989509583 0.5468000173568726
          0.49140000343322754 -0.06560000032186508 0.8684999942779541 0.249099999666214 0.12929999828338623 0.9598000049591064
          0.5807999968528748 0.4284000098705292 0.692300021648407 -0.09239999949932098 -0.7235000133514404 0.6841999888420105
          0.23729999363422394 -0.093299999833107 0.9668999910354614 0.8156999945640564 -0.2987000048160553 0.49540001153945923
          -0.2320999950170517 -0.6223000288009644 -0.7476000189781189 0.10239999741315842 -0.21400000154972076 -0.9714999794960022
          -0.3626999855041504 -0.18529999256134033 -0.9132999777793884 -0.20340000092983246 0.6863999962806702 0.698199987411499
          -0.6486999988555908 -0.07079999893903732 0.7577000260353088 -0.6427000164985657 0.2718000113964081 0.7161999940872192
          -0.4620000123977661 -0.5996000170707703 -0.6535000205039978 -0.9071000218391418 -0.15970000624656677 -0.3894999921321869
          -0.9138000011444092 -0.14429999887943268 -0.37959998846054077 -0.374099999666214 0.2070000022649765 0.9039999842643738
          -0.2655999958515167 0.14079999923706055 0.9538000226020813 -0.33629998564720154 0.14790000021457672 0.9301000237464905
          0.7785000205039978 0.10019999742507935 0.6195999979972839 0.8317000269889832 0.48500001430511475 0.2703999876976013
          0.9077000021934509 0.17810000479221344 0.3801000118255615 0.8892999887466431 0.03799999877810478 -0.45570001006126404
          0.9397000074386597 0.009800000116229057 -0.3418999910354614 0.9861000180244446 -0.11699999868869781 -0.11760000139474869
          -0.3203999996185303 -0.7803000211715698 0.5371999740600586 -0.6294999718666077 -0.717199981212616 -0.29910001158714294
          -0.7935000061988831 -0.5777000188827515 -0.19130000472068787 0.2029000073671341 -0.09390000253915787 -0.9746999740600586
          0.27219998836517334 -0.1696999967098236 -0.9472000002861023 0.23929999768733978 -0.06679999828338623 -0.9685999751091003
          -0.430400013923645 0.025200000032782555 0.9023000001907349 -0.32269999384880066 0.01979999989271164 0.9463000297546387
          -0.4203999936580658 0.02239999920129776 0.9071000218391418 0.8740000128746033 -0.09480000287294388 -0.4765999913215637
          0.8712999820709229 -0.23330000042915344 -0.4318000078201294 0.07370000332593918 0.1501999944448471 0.9858999848365784
          0.07180000096559525 0.12559999525547028 0.9894999861717224 -0.11079999804496765 0.10329999774694443 0.9884999990463257
          -0.07909999787807465 -0.012000000104308128 -0.9968000054359436 -0.320499986410141 0.05570000037550926 -0.9455999732017517
          -0.05570000037550926 0.07890000194311142 -0.9952999949455261 0.6047000288963318 -0.4453999996185303 -0.6603000164031982
          0.7620999813079834 -0.14010000228881836 -0.632099986076355 0.7102000117301941 -0.35339999198913574 -0.6089000105857849
          -0.6021000146865845 -0.04569999873638153 0.7971000075340271 -0.2240000069141388 -0.28290000557899475 0.9326000213623047
          -0.567300021648407 -0.05079999938607216 0.8220000267028809 0.2361000031232834 -0.29600000381469727 0.9254999756813049
          0.6237000226974487 0.12700000405311584 0.7712000012397766 0.31769999861717224 -0.24130000174045563 0.9169999957084656
          -0.3718999922275543 -0.33649998903274536 0.8651000261306763 -0.4302999973297119 -0.3635999858379364 0.826200008392334
          -0.42989999055862427 -0.3546999990940094 0.830299973487854 0.32499998807907104 -0.1437000036239624 0.9347000122070312
          0.27459999918937683 -0.18369999527931213 0.9438999891281128 0.3522999882698059 -0.156700000166893 0.9226999878883362
          0.590399980545044 0.33070001006126404 0.736299991607666 0.46389999985694885 0.07680000364780426 0.8826000094413757
          0.47540000081062317 0.18289999663829803 0.8605999946594238 -0.7204999923706055 -0.0940999984741211 -0.6869999766349792
          -0.47279998660087585 -0.15839999914169312 -0.8668000102043152 -0.6773999929428101 -0.1071000024676323 -0.7278000116348267
          0.7396000027656555 0.1535000056028366 0.6552000045776367 0.8579999804496765 -0.5069000124931335 0.08340000361204147
          -0.011800000444054604 -0.5343000292778015 0.8452000021934509 -0.8952999711036682 -0.24330000579357147 -0.37310001254081726
          -0.9347000122070312 -0.18410000205039978 -0.30410000681877136 -0.9749000072479248 0.046799998730421066 -0.21780000627040863
          0.27160000801086426 0.31200000643730164 -0.9103999733924866 0.2791000008583069 0.06469999998807907 -0.9581000208854675
          0.4235999882221222 -0.14149999618530273 -0.8946999907493591 0.8428000211715698 0.4198000133037567 0.336899995803833
          0.7486000061035156 0.3693999946117401 0.5504999756813049 0.8916000127792358 -0.2671999931335449 0.36550000309944153
          -0.7875999808311462 -0.03889999911189079 -0.6150000095367432 -0.7950999736785889 0.016599999740719795 -0.6061999797821045
          -0.907800018787384 0.04320000112056732 -0.4171999990940094 0.13099999725818634 -0.32179999351501465 -0.9376999735832214
          0.051500000059604645 -0.09459999948740005 -0.9941999912261963 0.14350000023841858 -0.42250001430511475 -0.8949000239372253
          0.8700000047683716 0.14380000531673431 0.4715999960899353 0.932699978351593 0.08900000154972076 0.3495999872684479
          0.8902000188827515 0.11500000208616257 0.4406999945640564 0.6062999963760376 0.02930000051856041 -0.794700026512146
          0.6072999835014343 0.06300000101327896 -0.7919999957084656 0.6521999835968018 0.0421999990940094 -0.7569000124931335
          -0.08420000225305557 -0.019500000402331352 -0.9962999820709229 -0.21610000729560852 -0.1193000003695488 -0.9690999984741211
          0.13279999792575836 0.08540000021457672 -0.987500011920929 0.9063000082969666 -0.23090000450611115 -0.3538999855518341
          0.9010000228881836 -0.14820000529289246 0.40779998898506165 0.9544000029563904 0.21649999916553497 0.20569999516010284
          0.5465999841690063 0.08789999783039093 0.8327999711036682 0.38940000534057617 -0.16910000145435333 0.9053999781608582
          0.4018000066280365 0.5582000017166138 0.7258999943733215 -0.8141000270843506 0.032099999487400055 0.5799000263214111
          -0.8773000240325928 -0.17100000381469727 0.44839999079704285 -0.8826000094413757 -0.04430000111460686 0.46790000796318054
          -0.8529000282287598 0.25279998779296875 -0.4569000005722046 -0.6984000205993652 -0.0917000025510788 -0.7098000049591064
          -0.5751000046730042 0.5447999835014343 -0.6103000044822693 -0.19750000536441803 0.9016000032424927 0.3849000036716461
          0.3086000084877014 0.09000000357627869 0.9469000101089478 -0.015300000086426735 -0.3626999855041504 0.9318000078201294
          0.7702000141143799 -0.18619999289512634 -0.6100999712944031 0.863099992275238 -0.16089999675750732 -0.4787999987602234
          0.9070000052452087 -0.12680000066757202 -0.4016999900341034 -0.8621000051498413 -0.4851999878883362 0.14630000293254852
          -0.8755999803543091 -0.249099999666214 0.4138999879360199 0.017000000923871994 -0.47290000319480896 0.8809999823570251
          -0.8205000162124634 0.37059998512268066 -0.43529999256134033 -0.878000020980835 0.3034999966621399 -0.3700999915599823
          -0.82669997215271 0.41269999742507935 -0.3824999928474426 -0.7767000198364258 -0.2639000117778778 -0.5719000101089478
          -0.8754000067710876 -0.26579999923706055 -0.40369999408721924 -0.8535000085830688 -0.2808000147342682 -0.4390000104904175
          0.14139999449253082 0.12439999729394913 0.9821000099182129 0.09570000320672989 -0.01759999990463257 0.9952999949455261
          -0.04560000076889992 0.006200000178068876 0.9988999962806702 -0.03400000184774399 -0.03579999879002571 -0.9987999796867371
          0.0625 -0.03269999846816063 -0.9975000023841858 -0.08160000294446945 -0.04320000112056732 -0.9957000017166138
          0.9302999973297119 0.31040000915527344 -0.19529999792575836 0.8758999705314636 -0.08529999852180481 -0.4749000072479248
          0.6410999894142151 -0.7303000092506409 -0.23589999973773956 -0.19419999420642853 -0.36419999599456787 0.9107999801635742
          -0.2223999947309494 -0.12479999661445618 0.9668999910354614 -0.3765000104904175 -0.13040000200271606 0.9172000288963318
          0.20149999856948853 -0.2978000044822693 0.9330999851226807 0.15539999306201935 -0.45969998836517334 0.8744000196456909
          0.227400004863739 -0.3467999994754791 0.9100000262260437 -0.8791000247001648 -0.10520000010728836 0.46480000019073486
          -0.7605000138282776 -0.3490999937057495 0.5475000143051147 -0.6894999742507935 -0.6743999719619751 0.2639999985694885
          -0.7689999938011169 0.4551999866962433 0.4487999975681305 -0.6481000185012817 0.019300000742077827 0.7613000273704529
          -0.9323999881744385 -0.013100000098347664 0.361299991607666 0.5189999938011169 0.6448000073432922 -0.5611000061035156
          0.8751999735832214 0.27000001072883606 -0.40149998664855957 0.7554000020027161 0.6470999717712402 0.10339999943971634
          -0.22589999437332153 -0.876800000667572 0.4244999885559082 0.2282000035047531 -0.9246000051498413 -0.3050999939441681
          -0.04179999977350235 -0.7490000128746033 -0.661300003528595 0.9607999920845032 -0.1348000019788742 -0.24240000545978546
          0.8858000040054321 -0.13259999454021454 -0.4447999894618988 0.9158999919891357 -0.05820000171661377 -0.39719998836517334
          0.630299985408783 0.7584999799728394 -0.1655000001192093 0.5910999774932861 0.6972000002861023 -0.40560001134872437
          0.38580000400543213 0.899399995803833 -0.2054000049829483 0.23149999976158142 0.8485000133514404 0.47589999437332153
          0.13580000400543213 0.9876000285148621 -0.07930000126361847 0.612500011920929 0.7554000020027161 -0.23270000517368317
          0.9157000184059143 0.20080000162124634 -0.3479999899864197 0.9847999811172485 0.019999999552965164 -0.17229999601840973
          0.7669000029563904 0.4788999855518341 -0.4271000027656555 0.3122999966144562 -0.5885000228881836 -0.7457000017166138
          0.21619999408721924 -0.23770000040531158 -0.9470000267028809 0.16850000619888306 -0.685699999332428 -0.7081000208854675
          -0.6384000182151794 0.1362999975681305 0.7574999928474426 -0.42080000042915344 0.1559000015258789 0.8937000036239624
          -0.5450000166893005 0.16210000216960907 0.8226000070571899 0.32760000228881836 -0.13729999959468842 -0.9348000288009644
          0.13189999759197235 -0.2615000009536743 -0.9560999870300293 0.42329999804496765 -0.44359999895095825 -0.7900000214576721
          -0.9980000257492065 -0.044199999421834946 0.04600000008940697 -0.8485999703407288 -0.32199999690055847 -0.4198000133037567
          -0.8427000045776367 -0.00279999990016222 -0.5383999943733215 0.093299999833107 0.8392000198364258 0.5357000231742859
          -0.511900007724762 0.7803999781608582 0.35899999737739563 -0.39590001106262207 0.8892999887466431 0.2290000021457672
          0.8930000066757202 0.3822000026702881 -0.23770000040531158 0.5819000005722046 0.4553000032901764 -0.6739000082015991
          0.03099999949336052 -0.010200000368058681 -0.9994999766349792 0.742900013923645 -0.590399980545044 0.31540000438690186
          0.8858000040054321 -0.44279998540878296 0.1388999968767166 0.8999999761581421 -0.2939000129699707 -0.32179999351501465
          -0.21539999544620514 -0.11020000278949738 -0.970300018787384 0.3596999943256378 0.39239999651908875 -0.8465999960899353
          0.07559999823570251 0.08150000125169754 -0.9937999844551086 0.20520000159740448 -0.156700000166893 -0.9660999774932861
          0.9958999752998352 0.05000000074505806 0.07500000298023224 0.9854999780654907 0.07580000162124634 -0.15209999680519104
          0.9887999892234802 -0.015399999916553497 -0.14830000698566437 -0.9988999962806702 0.002899999963119626 0.04639999940991402
          0.492000013589859 -0.7943000197410583 0.3562999963760376 -0.5751000046730042 -0.6245999932289124 -0.5282999873161316
          -0.9239000082015991 0.37929999828338623 0.04960000142455101 -0.910099983215332 0.41370001435279846 -0.02370000071823597
          -0.9708999991416931 0.23729999363422394 -0.031599998474121094 -0.0731000006198883 0.6590999960899353 0.7484999895095825
          -0.054999999701976776 0.5095999836921692 0.8586000204086304 0.015300000086426735 0.45509999990463257 0.8902999758720398
          -0.5145000219345093 0.01889999955892563 0.8572999835014343 -0.6859999895095825 -0.05209999904036522 0.7257000207901001
          -0.5645999908447266 -0.03909999877214432 0.824400007724762 -0.9301999807357788 -0.29589998722076416 0.21719999611377716
          -0.8694000244140625 -0.2775000035762787 0.40869998931884766 -0.9697999954223633 -0.15029999613761902 0.1923000067472458
          -0.3903999924659729 0.09669999778270721 -0.9154999852180481 -0.5619000196456909 0.13750000298023224 -0.8156999945640564
          -0.3215999901294708 0.15809999406337738 -0.9336000084877014 -0.1826999932527542 0.04230000078678131 0.9822999835014343
          -0.13130000233650208 0.1647000014781952 0.9775999784469604 0.014100000262260437 0.027000000700354576 0.9994999766349792
          0.824999988079071 -0.03400000184774399 0.5641999840736389 0.6840000152587891 0.033399999141693115 0.7286999821662903
          0.8057000041007996 0.04910000041127205 0.5903000235557556 -0.8741999864578247 -0.017999999225139618 -0.4851999878883362
          -0.8628000020980835 -0.0017999999690800905 -0.5055999755859375 -0.8956000208854675 -0.008799999952316284 -0.4447999894618988
          0.7526999711990356 0.1080000028014183 0.649399995803833 0.72079998254776 0.11249999701976776 0.6840000152587891
          0.8346999883651733 0.08110000193119049 0.544700026512146 0.0364999994635582 -0.9718999862670898 -0.23250000178813934
          0.09920000284910202 -0.9883999824523926 -0.11479999870061874 -0.08129999786615372 -0.9581999778747559 -0.2741999924182892
          -0.9908999800682068 -0.009700000286102295 0.1340000033378601 -0.9789999723434448 -0.07320000231266022 0.19020000100135803
          -0.9204999804496765 -0.016599999740719795 0.3903999924659729 0.43639999628067017 0.04320000112056732 -0.8986999988555908
          -0.45410001277923584 -0.3982999920845032 -0.7968999743461609 -0.5751000046730042 -0.41990000009536743 -0.7020999789237976
          -0.5473999977111816 -0.42289999127388 -0.722100019454956 -0.5112000107765198 -0.3366999924182892 -0.7907999753952026
          0.12530000507831573 0.6665999889373779 -0.7347999811172485 -0.7537000179290771 0.5902000069618225 -0.2890999913215637
          -0.8026999831199646 -0.1526000052690506 -0.5766000151634216 -0.9801999926567078 0.07909999787807465 -0.18170000612735748
          0.474700003862381 0.7763000130653381 0.4147999882698059 0.8578000068664551 0.461899995803833 0.22540000081062317
          0.8233000040054321 0.3294999897480011 0.46209999918937683 -0.7419999837875366 -0.1340000033378601 -0.6568999886512756
          -0.7300000190734863 -0.1216999962925911 -0.6725000143051147 -0.7437000274658203 -0.037300001829862595 -0.6674000024795532
          0.9516000151634216 0.024800000712275505 -0.30640000104904175 0.9850000143051147 -0.03310000151395798 0.16949999332427979
          0.9846000075340271 0.1282999962568283 0.1185000017285347 -0.7452999949455261 -0.024900000542402267 -0.6661999821662903
          -0.6055999994277954 -0.7623000144958496 0.22859999537467957 -0.420199990272522 -0.8258000016212463 -0.37610000371932983
          -0.3346000015735626 -0.9419000148773193 -0.03099999949336052 -0.3662000000476837 -0.17139999568462372 0.9146000146865845
          -0.03880000114440918 -0.5598999857902527 0.8277000188827515 -0.991599977016449 -0.00009999999747378752 0.1290999948978424
          -0.9351000189781189 -0.3172000050544739 0.1582999974489212 -0.9420999884605408 -0.003100000089034438 0.3352000117301941
          -0.8098999857902527 0.036400001496076584 -0.5853999853134155 -0.902899980545044 0.05249999836087227 -0.42649999260902405
          -0.7698000073432922 -0.17800000309944153 -0.6129999756813049 0.44290000200271606 0.28790000081062317 0.8490999937057495
          0.6790000200271606 0.5231999754905701 0.5149000287055969 0.7534000277519226 0.21870000660419464 0.620199978351593
          -0.8460000157356262 0.4458000063896179 -0.2922999858856201 -0.1987999975681305 0.18649999797344208 -0.9621000289916992
          -0.24639999866485596 0.03680000081658363 -0.968500018119812 -0.6812999844551086 0.27239999175071716 -0.6794000267982483
          0.21610000729560852 -0.5203999876976013 0.8260999917984009 0.2289000004529953 -0.37040001153945923 0.9002000093460083
          0.3571000099182129 -0.503600001335144 0.7867000102996826 -0.3262999951839447 -0.22709999978542328 0.9175999760627747
          -0.5789999961853027 0.383899986743927 0.7192999720573425 -0.5195000171661377 0.035599999129772186 0.8536999821662903
          0.08420000225305557 -0.9448999762535095 0.31630000472068787 0.34630000591278076 -0.9318000078201294 0.10869999974966049
          0.5866000056266785 -0.7379000186920166 0.3337000012397766 -0.006899999920278788 0.21359999477863312 -0.9768999814987183
          -0.052299998700618744 0.5651000142097473 -0.8234000205993652 -0.058400001376867294 0.12269999831914902 -0.9907000064849854
          0.1923000067472458 -0.18119999766349792 0.9645000100135803 0.04170000180602074 -0.2053000032901764 0.9778000116348267
          -0.0027000000700354576 -0.3709000051021576 0.9286999702453613 0.4293000102043152 -0.032499998807907104 -0.9025999903678894
          0.4465999901294708 -0.007000000216066837 -0.8946999907493591 0.38999998569488525 -0.017000000923871994 -0.9207000136375427
          0.9998000264167786 0.0142000000923872 0.01140000019222498 0.9650999903678894 -0.08380000293254852 0.24819999933242798
          0.9509000182151794 -0.0738999992609024 0.30070000886917114 0.08980000019073486 -0.09719999879598618 0.9911999702453613
          0.04100000113248825 0.016100000590085983 0.9990000128746033 0.7121000289916992 -0.11110000312328339 0.6931999921798706
          0.35510000586509705 0.8155999779701233 -0.4569000005722046 0.5997999906539917 0.800000011920929 0.016200000420212746
          0.49559998512268066 0.8684999942779541 -0.006300000008195639 -0.573199987411499 -0.8004000186920166 0.17560000717639923
          0.1868000030517578 -0.3553999960422516 0.9158999919891357 0.057999998331069946 -0.5981000065803528 0.7993000149726868
          0.9350000023841858 0.18790000677108765 0.30079999566078186 0.88919997215271 0.3167000114917755 0.3303000032901764
          0.8029000163078308 0.23100000619888306 0.5496000051498413 -0.7645999789237976 -0.5910999774932861 -0.257099986076355
          -0.7784000039100647 -0.5697000026702881 -0.263700008392334 -0.8535000085830688 -0.4894999861717224 0.1784999966621399
          -0.9117000102996826 -0.32120001316070557 -0.2563000023365021 -0.29670000076293945 -0.9546999931335449 0.023099999874830246
          -0.5861999988555908 -0.5547999739646912 -0.590499997138977 0.31290000677108765 0.2935999929904938 -0.9032999873161316
          0.20160000026226044 0.22619999945163727 -0.953000009059906 -0.11540000140666962 -0.28040000796318054 -0.9528999924659729
          0.026799999177455902 -0.08349999785423279 0.9961000084877014 -0.05040000006556511 -0.009600000455975533 0.9987000226974487
          -0.13369999825954437 -0.03840000182390213 0.9902999997138977 -0.3176000118255615 -0.6790000200271606 -0.6618000268936157
          -0.45649999380111694 -0.4790000021457672 -0.7498000264167786 -0.7874000072479248 -0.6072999835014343 -0.10580000281333923
          -0.04650000110268593 -0.9319000244140625 0.3598000109195709 -0.04659999907016754 -0.890999972820282 0.45159998536109924
          -0.45579999685287476 -0.7085999846458435 0.5386000275611877 -0.27129998803138733 -0.33570000529289246 -0.9020000100135803
          -0.39629998803138733 -0.2685999870300293 -0.8779000043869019 -0.47110000252723694 -0.3296999931335449 -0.8180999755859375
          0.2125999927520752 -0.15929999947547913 -0.9641000032424927 0.24320000410079956 -0.1290999948978424 -0.9613000154495239
          0.2160000056028366 -0.11729999631643295 -0.9692999720573425 0.4528000056743622 0.8848999738693237 0.10899999737739563
          0.7050999999046326 0.35030001401901245 0.6165000200271606 -0.9743000268936157 0.21960000693798065 -0.05090000107884407
          -0.9932000041007996 0.11429999768733978 -0.022199999541044235 -0.8610000014305115 0.4569000005722046 0.2232999950647354
          -0.0843999981880188 0.4603999853134155 0.8837000131607056 -0.41339999437332153 0.6960999965667725 0.5870000123977661
          0.006599999964237213 0.3596000075340271 0.9330999851226807 0.5582000017166138 -0.4618000090122223 0.689300000667572
          0.5662999749183655 -0.5702000260353088 0.5950999855995178 0.6358000040054321 -0.14830000698566437 0.7574999928474426
          -0.847100019454956 -0.3896999955177307 -0.3614000082015991 -0.9707000255584717 -0.20229999721050262 -0.12970000505447388
          -0.8172000050544739 -0.5753999948501587 -0.03200000151991844 0.9218999743461609 0.04639999940991402 -0.38449999690055847
          0.7997999787330627 0.5034000277519226 -0.3269999921321869 0.9063000082969666 0.12250000238418579 -0.4043999910354614
          -0.963699996471405 -0.2651999890804291 0.031599998474121094 -0.9470000267028809 -0.08500000089406967 0.30970001220703125
          -0.8916000127792358 -0.10840000212192535 0.43970000743865967 -0.9381999969482422 -0.3093999922275543 0.15520000457763672
          -0.9945999979972839 -0.10360000282526016 0.011500000022351742 -0.9930999875068665 -0.11190000176429749 -0.0357000008225441
          -0.8177000284194946 -0.5450999736785889 -0.1850000023841858 -0.8529999852180481 0.07429999858140945 -0.5166000127792358
          -0.9822999835014343 -0.1454000025987625 -0.11800000071525574 0.6941999793052673 0.6162999868392944 0.3718999922275543
          0.8101000189781189 0.4521999955177307 -0.3732999861240387 0.7465000152587891 0.546999990940094 0.3788999915122986
          -0.42100000381469727 -0.05079999938607216 -0.9057000279426575 0.06549999862909317 -0.3140999972820282 -0.9470999836921692
          -0.06719999760389328 -0.00430000014603138 -0.9976999759674072 -0.9480999708175659 -0.023900000378489494 0.31709998846054077
          -0.9606000185012817 0.10559999942779541 0.25690001249313354 -0.9961000084877014 0.07410000264644623 0.048500001430511475
          -0.33640000224113464 0.9254999756813049 0.17409999668598175 0.35760000348091125 0.9253000020980835 0.12600000202655792
          -0.7419000267982483 0.4219000041484833 0.5210999846458435 -0.5044999718666077 -0.8615000247955322 -0.057500001043081284
          0.03610000014305115 -0.9199000000953674 -0.390500009059906 -0.1964000016450882 -0.49129998683929443 -0.8485999703407288
          0.14110000431537628 -0.9745000004768372 -0.17440000176429749 0.23729999363422394 -0.9215999841690063 -0.30709999799728394
          0.09449999779462814 -0.9722999930381775 -0.21369999647140503 -0.024900000542402267 -0.996999979019165 0.0738999992609024
          0.1080000028014183 -0.9902999997138977 -0.08789999783039093 0.9771000146865845 0.19769999384880066 0.07819999754428864
          0.9595000147819519 0.1867000013589859 0.2110999971628189 0.9797999858856201 0.18479999899864197 0.07590000331401825
          0.7620999813079834 0.12300000339746475 -0.6355999708175659 0.7286999821662903 0.06689999997615814 -0.6815000176429749
          0.6743000149726868 0.09239999949932098 -0.732699990272522 -0.9074000120162964 -0.07779999822378159 -0.413100004196167
          -0.7508999705314636 -0.061000000685453415 -0.6575999855995178 -0.8870000243186951 -0.1665000021457672 -0.43070000410079956
          -0.9995999932289124 0.025599999353289604 -0.012299999594688416 -0.9692000150680542 -0.025599999353289604 -0.24480000138282776
          -0.9998999834060669 0.015200000256299973 -0.00279999990016222 0.007899999618530273 0.5446000099182129 0.8385999798774719
          0.023800000548362732 0.8223000168800354 0.5685999989509583 0.17499999701976776 0.3668000102043152 0.9136999845504761
          0.012799999676644802 0.9943000078201294 0.10610000044107437 0.09430000185966492 0.9523000121116638 -0.29010000824928284
          0.22439999878406525 0.9315000176429749 -0.28619998693466187 0.7940999865531921 -0.0348999984562397 0.6067000031471252
          0.8747000098228455 0.022099999710917473 0.48410001397132874 0.27469998598098755 0.03849999979138374 0.9606999754905701
          0.09669999778270721 -0.1185000017285347 -0.9882000088691711 -0.4481000006198883 -0.22050000727176666 -0.8664000034332275
          0.28769999742507935 -0.1679999977350235 -0.9429000020027161 0.4318000078201294 0.1770000010728836 0.8844000101089478
          0.4936999976634979 0.09920000284910202 0.8640000224113464 0.0803999975323677 0.019999999552965164 0.9965999722480774
          0.010999999940395355 0.04470000043511391 0.9988999962806702 0.03099999949336052 0.4339999854564667 -0.9003999829292297
          0.2500999867916107 -0.27790001034736633 -0.9275000095367432 0.17980000376701355 0.17229999601840973 -0.968500018119812
          -0.06340000033378601 -0.9970999956130981 -0.04170000180602074 0.07039999961853027 -0.8090999722480774 0.5835000276565552
          0.9210000038146973 -0.38260000944137573 -0.07280000299215317 0.6366000175476074 -0.748199999332428 -0.18709999322891235
          -0.39890000224113464 -0.48739999532699585 -0.7767000198364258 -0.640999972820282 -0.35830000042915344 -0.6787999868392944
          -0.6593000292778015 -0.5968000292778015 -0.45730000734329224 -0.3305000066757202 0.6240000128746033 0.7081000208854675
          -0.597599983215332 -0.01510000042617321 0.8016999959945679 -0.6624000072479248 0.24950000643730164 0.7063999772071838
          -0.8812000155448914 -0.2777000069618225 0.38269999623298645 -0.8981999754905701 -0.16539999842643738 0.4074000120162964
          -0.8342999815940857 -0.3000999987125397 0.4625000059604645 -0.6858000159263611 -0.04320000112056732 0.7264999747276306
          -0.7258999943733215 0.009700000286102295 0.6876999735832214 -0.6746000051498413 0.03500000014901161 0.7372999787330627
          -0.1543000042438507 -0.010700000450015068 0.9879999756813049 -0.16519999504089355 -0.3644999861717224 0.9164000153541565