<?xml version="1.0"?>
<VTKFile type="PolyData" version="0.1" byte_order="LittleEndian" header_type="UInt32" compressor="vtkZLibDataCompressor">
  <PolyData>
    <FieldData>
      <Array type="String" Name="MaterialNames" NumberOfTuples="1" format="ascii">
        109 97 116 101 114 105 97 108 95 48 0
      </Array>
      <Array type="String" Name="MaterialLibraries" NumberOfTuples="1" format="ascii">
        109 97 116 101 114 105 97 108 46 109 116 108 0
      </Array>
    </FieldData>
    <Piece NumberOfPoints="19172" NumberOfVerts="0" NumberOfLines="0" NumberOfStrips="0" NumberOfPolys="38773">
      <PointData Normals="Normals">
        <DataArray type="Float32" Name="Normals" NumberOfComponents="3" format="ascii" RangeMin="0.9999223079808393" RangeMax="1.0000770251767193">
          0.7353000044822693 -0.0737999975681305 -0.6736999750137329 0.6164000034332275 -0.014499999582767487 -0.7872999906539917
          0.6281999945640564 -0.05660000070929527 -0.7760000228881836 -0.1581999957561493 -0.06840000301599503 -0.9850000143051147
          -0.04910000041127205 -0.0003000000142492354 -0.9987999796867371 -0.013199999928474426 -0.06939999759197235 -0.9975000023841858
          -0.781499981880188 -0.20010000467300415 -0.5909000039100647 -0.7501999735832214 -0.25699999928474426 -0.6092000007629395
          -0.8299999833106995 -0.26980000734329224 -0.48820000886917114 0.2624000012874603 0.2078000009059906 0.942300021648407
          0.4050000011920929 0.18410000205039978 0.8956000208854675 0.2678999900817871 0.13300000131130219 0.954200029373169
          0.4251999855041504 -0.013700000010430813 -0.9049999713897705 0.3714999854564667 -0.11110000312328339 -0.9218000173568726
          0.5217000246047974 -0.010400000028312206 -0.8531000018119812 0.4699999988079071 -0.6739000082015991 -0.5699999928474426
          0.5102999806404114 -0.6344000101089478 -0.5806000232696533 0.6182000041007996 -0.47360000014305115 -0.6273000240325928
          -0.07289999723434448 0.9904999732971191 0.11699999868869781 -0.2524999976158142 0.9031999707221985 0.34700000286102295
          -0.2619999945163727 0.9623000025749207 0.07270000129938126 -0.21930000185966492 0.18970000743865967 0.9570000171661377
          -0.2921999990940094 0.18940000236034393 0.9373999834060669 -0.20000000298023224 0.2190999984741211 0.9549999833106995
          0.9453999996185303 0.06700000166893005 0.3190000057220459 0.9111999869346619 0.1039000004529953 0.3986000120639801
          0.9412000179290771 0.09279999881982803 0.3249000012874603 0.7806000113487244 0.21809999644756317 0.5856999754905701
          0.6674000024795532 0.2062000036239624 0.7156000137329102 0.628600001335144 0.16760000586509705 0.7595000267028809
          -0.3249000012874603 -0.1808999925851822 -0.9283000230789185 -0.323199987411499 -0.16689999401569366 -0.9315000176429749
          -0.2962999939918518 -0.17249999940395355 -0.9394000172615051 -0.9606999754905701 -0.04089999943971634 -0.27459999918937683
          -0.9625999927520752 -0.016599999740719795 -0.2703999876976013 -0.9778000116348267 -0.04749999940395355 -0.20389999449253082
          -0.8648999929428101 -0.4542999863624573 -0.2134000062942505 -0.3199999928474426 -0.9323999881744385 0.1679999977350235
          -0.3986999988555908 -0.3882000148296356 -0.8307999968528748 -0.49070000648498535 -0.04670000076293945 -0.8701000213623047
          -0.5440999865531921 -0.14429999887943268 -0.8264999985694885 -0.4388999938964844 -0.03550000116229057 -0.8978000283241272
          0.5148000121116638 0.857200026512146 0.012000000104308128 0.40639999508857727 0.9096999764442444 -0.08540000021457672
          0.5123000144958496 0.8551999926567078 -0.07819999754428864 -0.2502000033855438 0.07460000365972519 0.9653000235557556
          -0.16590000689029694 0.15870000422000885 0.9732999801635742 -0.23499999940395355 0.22050000727176666 0.9466000199317932
          -0.02800000086426735 0.9836000204086304 -0.17810000479221344 0.09399999678134918 0.9567000269889832 -0.275299996137619
          0.061500001698732376 0.9514999985694885 -0.30149999260902405 -0.05770000070333481 -0.2020999938249588 -0.9776999950408936
          -0.1088000014424324 -0.19709999859333038 -0.9743000268936157 -0.09570000320672989 -0.19140000641345978 -0.9768000245094299
          -0.9368000030517578 -0.02319999970495701 -0.3490000069141388 -0.8310999870300293 0.3050999939441681 -0.4650000035762787
          -0.7294999957084656 0.66839998960495 0.14499999582767487 -0.06870000064373016 0.3630000054836273 0.9293000102043152
          -0.06589999794960022 0.3774000108242035 0.9236999750137329 -0.26170000433921814 0.41990000009536743 0.8690000176429749
          -0.19359999895095825 0.3619000017642975 0.911899983882904 -0.1412999927997589 0.4097000062465668 0.901199996471405
          -0.16349999606609344 0.36399999260902405 0.9168999791145325 0.7472000122070312 -0.04230000078678131 0.6632999777793884
          0.7218999862670898 -0.13449999690055847 0.6787999868392944 0.6955000162124634 -0.07639999687671661 0.7145000100135803
          0.8330000042915344 0.1881999969482422 0.5202999711036682 0.8547000288963318 0.21950000524520874 0.47040000557899475
          0.7824000120162964 0.1289999932050705 0.6093000173568726 -0.3070000112056732 0.14399999380111694 0.9408000111579895
          -0.25360000133514404 0.1906999945640564 0.9483000040054321 -0.26759999990463257 0.15710000693798065 0.9506000280380249
          0.8174999952316284 0.5756000280380249 -0.02239999920129776 0.9391999840736389 -0.31459999084472656 -0.13770000636577606
          0.8799999952316284 -0.4666000008583069 0.08869999647140503 0.9115999937057495 0.01640000008046627 0.4106999933719635
          0.888700008392334 0.05009999871253967 0.45579999685287476 0.8011999726295471 0.0786999985575676 0.5932000279426575
          -0.04560000076889992 0.8409000039100647 0.5392000079154968 0.30239999294281006 0.7332000136375427 0.6090999841690063
          0.21060000360012054 0.5992000102996826 0.7724000215530396 0.7070000171661377 0.5573999881744385 0.43529999256134033
          0.7523000240325928 0.3912000060081482 0.5300999879837036 0.9229000210762024 0.23149999976158142 0.3075999915599823
          0.42399999499320984 -0.41589999198913574 0.8044999837875366 0.8813999891281128 -0.40139999985694885 0.24889999628067017
          0.6258999705314636 -0.5656999945640564 0.5368000268936157 0.3885999917984009 -0.6459000110626221 -0.6571000218391418
          0.3027999997138977 -0.8485999703407288 -0.43380001187324524 0.8539000153541565 -0.5131999850273132 0.08669999986886978
          -0.3887999951839447 -0.6371999979019165 -0.6654999852180481 -0.1597999930381775 -0.6108999848365784 -0.7753999829292297
          -0.18459999561309814 -0.2946000099182129 -0.9376000165939331 0.4187999963760376 0.021900000050663948 -0.907800018787384
          0.4401000142097473 0.05790000036358833 -0.8960999846458435 0.3264999985694885 -0.04529999941587448 -0.944100022315979
          0.01549999974668026 0.896399974822998 0.44290000200271606 0.002899999963119626 0.9266999959945679 0.375900000333786
          0.0706000030040741 0.9309999942779541 0.3582000136375427 -0.9577000141143799 0.23250000178813934 0.16949999332427979
          -0.9656999707221985 0.18440000712871552 0.18299999833106995 -0.9793999791145325 0.18299999833106995 0.08500000089406967
          0.9912999868392944 -0.13179999589920044 0.006500000134110451 0.9405999779701233 -0.3102000057697296 -0.13809999823570251
          0.9997000098228455 0.02290000021457672 0.007799999788403511 -0.20569999516010284 -0.17560000717639923 -0.9627000093460083
          -0.23720000684261322 -0.15809999406337738 -0.9585000276565552 -0.2718000113964081 -0.1687999963760376 -0.9473999738693237
          -0.8799999952316284 -0.42239999771118164 0.21699999272823334 -0.8324999809265137 -0.41909998655319214 0.362199991941452
          -0.8080000281333923 -0.45579999685287476 0.3732999861240387 -0.42419999837875366 0.6574000120162964 0.6226999759674072
          -0.4259999990463257 0.739300012588501 0.5214999914169312 -0.5424000024795532 0.6730999946594238 0.5026999711990356
          -0.4357999861240387 -0.13410000503063202 -0.8899999856948853 -0.9067000150680542 -0.11599999666213989 -0.40560001134872437
          -0.8525999784469604 -0.0215000007301569 -0.5221999883651733 -0.6194999814033508 -0.09489999711513519 -0.77920001745224
          0.9136999845504761 -0.0892999991774559 -0.39649999141693115 0.6855000257492065 0.04529999941587448 -0.7267000079154968
          0.6776999831199646 -0.29159998893737793 -0.675000011920929 0.3061999976634979 -0.11990000307559967 -0.9444000124931335
          0.301800012588501 -0.1316000074148178 -0.9442999958992004 0.38679999113082886 -0.038600001484155655 -0.9214000105857849
          -0.5835000276565552 0.5494999885559082 0.5979999899864197 -0.5637000203132629 0.4675999879837036 0.680899977684021
          -0.6729000210762024 0.4733000099658966 0.5684999823570251 0.17910000681877136 0.6208000183105469 0.7631999850273132
          0.49790000915527344 0.6017000079154968 0.6244999766349792 0.2434999942779541 0.30300000309944153 0.9214000105857849
          -0.131400004029274 -0.9366000294685364 0.3249000012874603 -0.3605000078678131 -0.9085999727249146 -0.210999995470047
          -0.21580000221729279 -0.9330000281333923 0.28790000081062317 0.19099999964237213 -0.7928000092506409 -0.5788000226020813
          0.13950000703334808 -0.593999981880188 -0.7922999858856201 0.04100000113248825 -0.4684999883174896 -0.8824999928474426
          0.9110000133514404 -0.1453000009059906 -0.38600000739097595 0.9125999808311462 -0.12129999697208405 -0.3903999924659729
          0.9007999897003174 -0.1582999974489212 -0.4043000042438507 0.9952999949455261 0.0032999999821186066 0.09679999947547913
          0.9912999868392944 -0.08789999783039093 0.09759999811649323 0.9638000130653381 0.07720000296831131 0.2549999952316284
          0.42750000953674316 -0.5640000104904175 -0.7064999938011169 -0.8087000250816345 0.4927999973297119 -0.32120001316070557
          -0.84170001745224 0.399399995803833 -0.36340001225471497 -0.7437999844551086 0.357699990272522 -0.5644999742507935
          0.2946000099182129 -0.15039999783039093 0.9437000155448914 0.7258999943733215 0.1670999974012375 0.6672999858856201
          0.7610999941825867 0.23250000178813934 0.6054999828338623 0.8194000124931335 -0.08009999990463257 0.5677000284194946
          0.35109999775886536 0.24609999358654022 0.9034000039100647 0.8564000129699707 -0.04259999841451645 0.5145000219345093
          -0.8912000060081482 0.08569999784231186 0.445499986410141 -0.9018999934196472 0.23270000517368317 0.36399999260902405
          -0.8788999915122986 0.30149999260902405 0.36970001459121704 0.7396000027656555 0.06449999660253525 -0.6700000166893005
          0.38179999589920044 -0.8567000031471252 -0.3467999994754791 0.4975000023841858 -0.8619999885559082 0.09749999642372131
          -0.12200000137090683 0.09589999914169312 0.9879000186920166 -0.1518000066280365 0.09489999711513519 0.9837999939918518
          -0.2045000046491623 0.1324000060558319 0.9699000120162964 -0.604200005531311 -0.3183000087738037 0.7304999828338623
          -0.515999972820282 -0.3467999994754791 0.78329998254776 -0.5766000151634216 -0.39070001244544983 0.7174999713897705
          -0.16830000281333923 -0.2425999939441681 -0.9553999900817871 -0.20419999957084656 -0.24300000071525574 -0.9483000040054321
          -0.20810000598430634 -0.24580000340938568 -0.9466999769210815 -0.3944999873638153 0.4560999870300293 -0.7976999878883362
          -0.4203000068664551 0.5842000246047974 -0.6942999958992004 -0.39309999346733093 0.554099977016449 -0.7337999939918518
          -0.9753999710083008 0.09179999679327011 0.20020000636577606 -0.9108999967575073 0.12080000340938568 0.3944999873638153
          -0.8819000124931335 0.04230000078678131 0.46950000524520874 0.45159998536109924 -0.8084999918937683 -0.3774000108242035
          0.26759999990463257 -0.949999988079071 -0.1606999933719635 0.7440999746322632 -0.5618000030517578 -0.36149999499320984
          -0.3540000021457672 -0.8391000032424927 -0.4129999876022339 -0.505299985408783 -0.620199978351593 -0.6000999808311462
          -0.8299000263214111 -0.3792000114917755 -0.4092000126838684 0.741100013256073 0.4620000123977661 -0.4871000051498413
          0.012299999594688416 0.5497000217437744 -0.8353000283241272 0.41620001196861267 0.784500002861023 -0.45969998836517334
          -0.7678999900817871 -0.4544999897480011 -0.4512999951839447 -0.885200023651123 0.01640000008046627 -0.4650000035762787
          -0.8428000211715698 -0.20990000665187836 -0.49559998512268066 -0.04170000180602074 -0.9972000122070312 0.061400000005960464
          -0.2184000015258789 -0.6385999917984009 0.7379000186920166 0.13860000669956207 -0.2718999981880188 0.9523000121116638
          0.15230000019073486 0.2833999991416931 -0.9467999935150146 0.1835000067949295 0.1746000051498413 -0.9674000144004822
          0.39399999380111694 0.06689999997615814 -0.916700005531311 0.33169999718666077 -0.9388999938964844 -0.0917000025510788
          -0.1445000022649765 -0.5295000076293945 -0.8359000086784363 0.414000004529953 -0.7616999745368958 -0.4984999895095825
          0.6978999972343445 -0.6765999794006348 0.23479999601840973 0.9345999956130981 -0.2678999900817871 -0.23389999568462372
          0.7692999839782715 -0.5787000060081482 0.27079999446868896 0.1728000044822693 -0.19269999861717224 -0.9659000039100647
          0.1875 -0.007899999618530273 -0.982200026512146 0.4018999934196472 -0.13819999992847443 -0.9052000045776367
          0.023399999365210533 0.2921000123023987 0.9560999870300293 -0.4341999888420105 0.2806999981403351 0.85589998960495
          -0.1307000070810318 0.15080000460147858 0.9799000024795532 0.8711000084877014 -0.37529999017715454 -0.31690001487731934
          0.8342000246047974 -0.12860000133514404 -0.5361999869346619 0.804099977016449 -0.20149999856948853 -0.5591999888420105
          0.3750999867916107 -0.45239999890327454 0.8090999722480774 0.6782000064849854 -0.1996999979019165 0.7071999907493591
          0.7509999871253967 -0.4336000084877014 0.49799999594688416 0.6746000051498413 0.2919999957084656 -0.6779999732971191
          0.8176000118255615 -0.10010000318288803 -0.5669999718666077 0.8907999992370605 0.20960000157356262 -0.4032000005245209
          0.8744000196456909 0.3668999969959259 0.31769999861717224 0.8848000168800354 0.20020000636577606 0.42089998722076416
          0.8974999785423279 0.3959999978542328 0.1941000074148178 -0.5791000127792358 -0.7441999912261963 0.3330000042915344
          -0.6470000147819519 -0.7615000009536743 0.039500001817941666 -0.6477000117301941 -0.7516999840736389 0.12470000237226486
          0.43790000677108765 -0.03310000151395798 -0.8984000086784363 0.3659999966621399 -0.09229999780654907 -0.9259999990463257
          0.4569999873638153 -0.0649000033736229 -0.8870999813079834 -0.6812999844551086 -0.1347000002861023 -0.7195000052452087
          -0.8460999727249146 -0.11330000311136246 -0.5209000110626221 -0.8019999861717224 -0.10300000011920929 -0.5884000062942505
          -0.18870000541210175 0.014499999582767487 -0.9818999767303467 0.5016999840736389 -0.25429999828338623 -0.8267999887466431
          0.13830000162124634 0.08410000056028366 -0.9868000149726868 0.7854999899864197 -0.2651999890804291 -0.5591999888420105
          0.31869998574256897 -0.19840000569820404 -0.9269000291824341 0.4823000133037567 -0.5723000168800354 -0.6632000207901001
          -0.9588000178337097 0.11919999867677689 0.25769999623298645 -0.9758999943733215 0.11289999634027481 0.186599999666214
          -0.9394000172615051 0.13269999623298645 0.3160000145435333 -0.9973000288009644 0.05559999868273735 0.047600001096725464
          -0.9652000069618225 0.03869999945163727 0.25850000977516174 -0.9995999932289124 0.0272000003606081 0.004600000102072954
          -0.30979999899864197 -0.15209999680519104 -0.9384999871253967 -0.3398999869823456 -0.18709999322891235 -0.9217000007629395
          -0.45399999618530273 -0.13570000231266022 -0.8805999755859375 -0.928600013256073 -0.038100000470876694 -0.36910000443458557
          -0.9025999903678894 -0.07270000129938126 -0.4242999851703644 -0.9323999881744385 -0.043299999088048935 -0.3587999939918518
          -0.949400007724762 0.3142000138759613 -0.003000000026077032 -0.9696000218391418 0.22859999537467957 -0.0869000032544136
          -0.9685999751091003 0.2476000040769577 -0.020999999716877937 -0.8758999705314636 0.319599986076355 -0.36149999499320984
          -0.8095999956130981 0.4153999984264374 -0.4147999882698059 -0.8435999751091003 0.23659999668598175 -0.4819999933242798
          0.8338000178337097 0.4438000023365021 0.32850000262260437 0.8550999760627747 0.08250000327825546 0.5117999911308289
          0.8384000062942505 0.15189999341964722 0.5234000086784363 0.07729999721050262 -0.8881000280380249 0.4530999958515167
          0.29260000586509705 -0.4027000069618225 0.8672999739646912 0.48500001430511475 -0.6394000053405762 0.5965999960899353
          -0.4803999960422516 0.8398000001907349 0.25290000438690186 0.3903999924659729 0.8454999923706055 -0.36419999599456787
          0.006300000008195639 0.9710000157356262 0.23909999430179596 -0.34850001335144043 0.9082000255584717 0.23180000483989716
          -0.33899998664855957 0.8406000137329102 0.42250001430511475 -0.6690000295639038 0.6687999963760376 0.32429999113082886
          -0.9520000219345093 -0.17589999735355377 -0.25049999356269836 -0.8478999733924866 -0.28859999775886536 -0.4447999894618988
          -0.987500011920929 -0.15649999678134918 -0.01769999973475933 0.7429999709129333 0.10819999873638153 0.6604999899864197
          0.7461000084877014 0.08169999718666077 0.6607999801635742 0.8873999714851379 0.11379999667406082 0.44679999351501465
          0.12120000272989273 -0.14190000295639038 -0.9824000000953674 0.06040000170469284 -0.15680000185966492 -0.98580002784729
          -0.02239999920129776 -0.14800000190734863 -0.9886999726295471 0.967199981212616 0.019200000911951065 -0.2533999979496002
          0.954200029373169 -0.038600001484155655 -0.29679998755455017 0.9517999887466431 -0.006399999838322401 -0.3066999912261963
          0.1356000006198883 0.011599999852478504 0.9907000064849854 0.013899999670684338 0.004399999976158142 0.9998999834060669
          0.16140000522136688 0.08810000121593475 0.9829999804496765 0.149399995803833 0.1421000063419342 0.9785000085830688
          0.1842000037431717 0.18629999458789825 0.9650999903678894 0.19429999589920044 0.14740000665187836 0.9697999954223633
          0.8981999754905701 0.43950000405311584 -0.0008999999845400453 0.8568000197410583 0.515500009059906 0.016599999740719795
          0.7196999788284302 0.6938999891281128 -0.023499999195337296 0.592199981212616 -0.10980000346899033 -0.79830002784729
          -0.2678999900817871 -0.16869999468326569 -0.9485999941825867 0.2603999972343445 -0.22669999301433563 -0.9384999871253967
          -0.15780000388622284 -0.5503000020980835 0.8198999762535095 -0.10599999874830246 -0.4864000082015991 0.8672999739646912
          -0.15049999952316284 -0.8295000195503235 0.5378000140190125 0.4262999892234802 0.1671999990940094 0.8889999985694885
          0.3889000117778778 0.06109999865293503 0.9192000031471252 0.4510999917984009 0.12229999899864197 0.8841000199317932
          0.23589999973773956 0.9595000147819519 -0.15379999577999115 0.1704999953508377 0.9023000001907349 -0.39590001106262207
          0.24379999935626984 0.9496999979019165 -0.1964000016450882 -0.7501000165939331 -0.6151999831199646 -0.2425999939441681
          -0.7529000043869019 -0.09130000323057175 -0.6517999768257141 0.2773999869823456 0.9088000059127808 -0.31150001287460327
          0.38269999623298645 0.9115999937057495 -0.1500999927520752 0.08869999647140503 0.993399977684021 -0.07240000367164612
          -0.6287999749183655 -0.38659998774528503 -0.6747000217437744 -0.9763000011444092 0.09589999914169312 -0.1941000074148178
          -0.9843000173568726 0.15800000727176666 -0.07900000363588333 0.4569000005722046 0.5993000268936157 -0.6572999954223633
          -0.17820000648498535 0.911300003528595 -0.37119999527931213 -0.09160000085830688 0.5059000253677368 -0.857699990272522
          0.8616999983787537 -0.04450000077486038 -0.5054000020027161 0.9174000024795532 -0.13030000030994415 -0.37610000371932983
          0.9692999720573425 -0.10040000081062317 -0.22429999709129333 0.14429999887943268 -0.9800000190734863 -0.13680000603199005
          0.8191999793052673 -0.5412999987602234 -0.18940000236034393 0.48019999265670776 -0.41339999437332153 -0.7735999822616577
          -0.598800003528595 0.7738000154495239 0.20669999718666077 0.007499999832361937 0.9994999766349792 -0.02930000051856041
          -0.03280000016093254 0.8693000078201294 0.4932999908924103 0.4778999984264374 0.8727999925613403 0.09929999709129333
          0.46219998598098755 0.8476999998092651 -0.26019999384880066 -0.10220000147819519 0.9577999711036682 -0.2687999904155731
          -0.7962999939918518 -0.026599999517202377 -0.6043000221252441 -0.9276000261306763 0.07769999653100967 -0.3653999865055084
          -0.8248999714851379 0.00039999998989515007 -0.5652999877929688 -0.009999999776482582 -0.9815000295639038 -0.19120000302791595
          0.4593000113964081 -0.8863999843597412 -0.05730000138282776 0.15119999647140503 -0.984499990940094 -0.08879999816417694
          0.6718999743461609 -0.02239999920129776 -0.7402999997138977 0.6840999722480774 -0.620199978351593 -0.383899986743927
          0.9160000085830688 -0.24400000274181366 -0.31859999895095825 0.1664000004529953 -0.6995999813079834 0.6948999762535095
          -0.15039999783039093 -0.7645000219345093 0.6269000172615051 -0.16850000619888306 -0.8671000003814697 0.46869999170303345
          0.2248000055551529 0.8802000284194946 0.4180999994277954 -0.03840000182390213 -0.018200000748038292 0.9991000294685364
          -0.6514999866485596 0.4410000145435333 0.6172999739646912 0.4009999930858612 -0.35920000076293945 0.8427000045776367
          0.3840000033378601 -0.34869998693466187 0.8550000190734863 0.2994999885559082 -0.4740000069141388 0.828000009059906
          -0.5175999999046326 -0.23340000212192535 0.823199987411499 -0.4016999900341034 -0.311599999666214 0.8611000180244446
          -0.5364999771118164 -0.28780001401901245 0.7932999730110168 -0.5996000170707703 -0.5342000126838684 0.5958999991416931
          -0.9354000091552734 -0.2621000111103058 0.2371000051498413 -0.6413999795913696 -0.22089999914169312 0.7347000241279602
          0.3068999946117401 0.009100000374019146 0.95169997215271 0.2711000144481659 -0.15189999341964722 0.9505000114440918
          0.23720000684261322 0.08340000361204147 0.9678999781608582 -0.02590000070631504 -0.7667999863624573 -0.6413000226020813
          -0.08100000023841858 -0.6718000173568726 -0.736299991607666 0.24809999763965607 -0.9531000256538391 0.17350000143051147
          0.15489999949932098 -0.8632000088691711 0.4805000126361847 0.1251000016927719 -0.9803000092506409 0.15299999713897705
          -0.8080999851226807 -0.05209999904036522 -0.5867000222206116 -0.7853999733924866 -0.1306000053882599 -0.6050000190734863
          -0.7235999703407288 -0.08410000056028366 -0.6851000189781189 -0.8489999771118164 0.07670000195503235 0.5228999853134155
          -0.8274999856948853 -0.020999999716877937 0.5611000061035156 -0.945900022983551 -0.017100000753998756 0.3239000141620636
          0.2605000138282776 0.9606000185012817 -0.09709999710321426 0.20409999787807465 0.9702000021934509 -0.13079999387264252
          0.38609999418258667 0.917900025844574 -0.09179999679327011 -0.06499999761581421 0.9423999786376953 0.3280999958515167
          -0.044599998742341995 0.9557999968528748 0.2906000018119812 -0.06279999762773514 0.9276000261306763 0.3682999908924103
          -0.13760000467300415 -0.864799976348877 0.4828000068664551 -0.5687000155448914 -0.30559998750686646 0.763700008392334
          -0.44760000705718994 -0.5594000220298767 0.6976000070571899 0.7414000034332275 0.03460000082850456 0.6700999736785889
          0.6470999717712402 0.026399999856948853 0.7620000243186951 0.7639999985694885 0.05220000073313713 0.6431999802589417
          0.5156999826431274 0.21809999644756317 0.828499972820282 0.5250999927520752 0.14800000190734863 0.838100016117096
          0.5482000112533569 0.1509000062942505 0.8226000070571899 0.9972000122070312 -0.07450000196695328 0.0010999999940395355
          0.9968000054359436 -0.0778999999165535 0.01679999940097332 0.9908999800682068 -0.0568000003695488 0.12210000306367874
          0.42739999294281006 0.17569999396800995 -0.8867999911308289 0.8701000213623047 -0.17059999704360962 -0.46239998936653137
          0.9002000093460083 -0.39160001277923584 -0.1907999962568283 -0.852400004863739 -0.046799998730421066 -0.520799994468689
          -0.6355000138282776 -0.0786999985575676 -0.7681000232696533 -0.8859999775886536 0.02199999988079071 -0.46320000290870667
          -0.6746000051498413 0.2362000048160553 -0.699400007724762 -0.4424999952316284 0.3528999984264374 -0.824400007724762
          0.8906999826431274 0.3650999963283539 0.27079999446868896 0.963699996471405 0.0877000018954277 0.25200000405311584
          0.779699981212616 0.10459999740123749 0.6172999739646912 -0.5864999890327454 0.6751999855041504 0.4474000036716461
          -0.43709999322891235 0.5461999773979187 0.7145000100135803 -0.9110000133514404 0.36959999799728394 0.18279999494552612
          -0.2870999872684479 -0.01140000019222498 0.9577999711036682 -0.7246000170707703 0.025200000032782555 0.6887000203132629
          -0.46709999442100525 0.3522999882698059 0.8109999895095825 -0.8263999819755554 0.025200000032782555 0.5625
          -0.8252999782562256 0.10649999976158142 0.5544999837875366 -0.7644000053405762 0.03880000114440918 0.6434999704360962
          -0.9890999794006348 -0.07900000363588333 -0.12449999898672104 -0.996399998664856 -0.06560000032186508 -0.05310000106692314
          -0.9865999817848206 -0.07259999960660934 -0.14589999616146088 -0.9890000224113464 0.008899999782443047 -0.14740000665187836
          -0.9833999872207642 0.033399999141693115 -0.1784999966621399 -0.9508000016212463 -0.00430000014603138 -0.3098999857902527
          -0.2712000012397766 -0.14800000190734863 -0.9510999917984009 -0.32899999618530273 -0.15929999947547913 -0.9308000206947327
          -0.35910001397132874 -0.16140000522136688 -0.9192000031471252 -0.8726000189781189 -0.44609999656677246 0.1987999975681305
          -0.9739000201225281 0.015300000086426735 0.226500004529953 -0.5012999773025513 -0.2567000091075897 0.8263000249862671
          0.9771000146865845 0.19979999959468842 0.07329999655485153 0.930400013923645 0.18129999935626984 -0.31850001215934753
          0.9308000206947327 0.3379000127315521 -0.13930000364780426 0.9435999989509583 -0.08420000225305557 0.32010000944137573
          0.9174000024795532 -0.0019000000320374966 0.3978999853134155 0.9498999714851379 -0.04899999871850014 0.30869999527931213
          -0.3700999915599823 -0.9290000200271606 0.0044999998062849045 -0.014000000432133675 -0.9998000264167786 -0.015200000256299973
          -0.003000000026077032 -0.9847999811172485 -0.17389999330043793 0.8474000096321106 -0.43560001254081726 0.303600013256073
          0.8866999745368958 -0.3926999866962433 0.24400000274181366 0.8291000127792358 -0.517799973487854 0.21080000698566437
          0.12860000133514404 -0.6851000189781189 0.7170000076293945 -0.05999999865889549 -0.3000999987125397 0.9520000219345093
          0.06239999830722809 -0.499099999666214 0.864300012588501 0.975600004196167 0.18559999763965607 -0.11699999868869781
          0.9919999837875366 0.0885000005364418 -0.09019999951124191 0.9829999804496765 0.16699999570846558 -0.07680000364780426
          0.9735000133514404 0.0203000009059906 0.22769999504089355 0.9391999840736389 0.2159000039100647 0.2669999897480011
          0.5550000071525574 0.6136999726295471 0.5616000294685364 0.6805999875068665 0.5971999764442444 0.4244999885559082
          0.6381999850273132 0.5922999978065491 0.4918000102043152 0.9660000205039978 -0.07320000231266022 -0.24789999425411224
          0.9660000205039978 0.056699998676776886 -0.25220000743865967 0.9891999959945679 -0.04399999976158142 0.14000000059604645
          0.07270000129938126 -0.4609000086784363 -0.8845000267028809 -0.12530000507831573 -0.4401000142097473 -0.88919997215271
          0.1492999941110611 -0.3224000036716461 -0.9347000122070312 0.011900000274181366 -0.9693999886512756 0.2451999932527542
          -0.28760001063346863 0.9150999784469604 0.2825999855995178 -0.6700000166893005 0.6517999768257141 0.35530000925064087
          0.12290000170469284 0.9629999995231628 0.23989999294281006 0.7411999702453613 0.5382999777793884 -0.4009999930858612
          0.7462999820709229 0.4406000077724457 0.49900001287460327 0.1152999997138977 0.9746999740600586 -0.1914999932050705
          0.5521000027656555 0.39910000562667847 -0.7321000099182129 0.7599999904632568 0.5353999733924866 -0.3684999942779541
          0.41019999980926514 0.13410000503063202 -0.9021000266075134 0.7784000039100647 -0.5267999768257141 0.34150001406669617
          0.6011000275611877 -0.5964999794960022 0.5317999720573425 0.8080000281333923 -0.2939000129699707 0.510699987411499
          0.35670000314712524 0.022600000724196434 -0.9340000152587891 0.3824000060558319 -0.10029999911785126 -0.9185000061988831
          0.8080000281333923 -0.21070000529289246 -0.5501999855041504 -0.38429999351501465 -0.27059999108314514 -0.8827000260353088
          -0.4684000015258789 -0.15620000660419464 -0.8695999979972839 -0.5095000267028809 -0.3122999966144562 -0.801800012588501