<?xml version="1.0"?>
<VTKFile type="PolyData" version="0.1" byte_order="LittleEndian" header_type="UInt32" compressor="vtkZLibDataCompressor">
  <PolyData>
    <FieldData>
      <Array type="String" Name="MaterialNames" NumberOfTuples="1" format="ascii">
        109 97 116 101 114 105 97 108 95 48 0
      </Array>
      <Array type="String" Name="MaterialLibraries" NumberOfTuples="1" format="ascii">
        109 97 116 101 114 105 97 108 46 109 116 108 0
      </Array>
    </FieldData>
    <Piece NumberOfPoints="11870" NumberOfVerts="0" NumberOfLines="0" NumberOfStrips="0" NumberOfPolys="23895">
      <PointData Normals="Normals">
        <DataArray type="Float32" Name="Normals" NumberOfComponents="3" format="ascii" RangeMin="0.9998848782346159" RangeMax="1.0000589064818235">
          -0.5867000222206116 -0.8032000064849854 0.10300000011920929 -0.4754999876022339 -0.8553000092506409 -0.20550000667572021
          -0.007699999958276749 -0.9944999814033508 0.10459999740123749 -0.9253000020980835 -0.3375999927520752 0.1729000061750412
          -0.5400999784469604 -0.6722999811172485 0.5060999989509583 -0.3955000042915344 -0.8774999976158142 0.27129998803138733
          -0.49239999055862427 -0.8418999910354614 -0.2207999974489212 -0.023800000548362732 -0.996399998664856 -0.08169999718666077
          -0.8766999840736389 -0.4717000126838684 0.09369999915361404 -0.23240000009536743 -0.9714999794960022 0.04580000042915344
          -0.24860000610351562 -0.9233999848365784 -0.2924000024795532 0.08370000123977661 -0.9962000250816345 -0.02070000022649765
          -0.6200000047683716 -0.7680000066757202 0.16030000150203705 -0.538100004196167 -0.833899974822998 -0.12269999831914902
          -0.8248999714851379 -0.5231000185012817 0.21410000324249268 0.053700000047683716 -0.9520000219345093 0.30140000581741333
          -0.094200000166893 -0.8145999908447266 0.5723000168800354 -0.4016999900341034 -0.8087999820709229 0.4293999969959259
          -0.7473000288009644 -0.3869999945163727 0.5400999784469604 -0.08229999989271164 -0.992900013923645 0.08579999953508377
          -0.19059999287128448 -0.9444000124931335 -0.2680000066757202 0.12559999525547028 -0.9861999750137329 -0.10760000348091125
          -0.44530001282691956 -0.8902999758720398 0.0949999988079071 -0.3504999876022339 -0.503600001335144 0.7896000146865845
          -0.03519999980926514 -0.9449999928474426 0.32499998807907104 -0.4553999900817871 -0.6765000224113464 0.5787000060081482
          -0.8055999875068665 -0.46050000190734863 0.3727000057697296 -0.375900000333786 -0.9161999821662903 -0.1388999968767166
          -0.30250000953674316 -0.9442999958992004 -0.12919999659061432 -0.006300000008195639 -0.9822999835014343 -0.18709999322891235
          -0.7993999719619751 -0.6000999808311462 -0.027400000020861626 -0.10890000313520432 -0.9923999905586243 -0.057100001722574234
          0.07349999994039536 -0.9937000274658203 -0.0851999968290329 -0.6550999879837036 -0.7527999877929688 -0.0640999972820282
          -0.9593999981880188 -0.23319999873638153 0.1582999974489212 0.07370000332593918 -0.9945999979972839 -0.07280000299215317
          -0.9416999816894531 -0.0027000000700354576 0.33629998564720154 -0.2386000007390976 -0.9667999744415283 -0.09139999747276306
          -0.3499999940395355 -0.8230999708175659 0.44699999690055847 -0.810699999332428 -0.24719999730587006 0.5307000279426575
          -0.031099999323487282 -0.9850000143051147 -0.16979999840259552 0.01269999984651804 -0.9563999772071838 -0.29170000553131104
          0.09619999676942825 -0.9593999981880188 -0.26489999890327454 -0.8389000296592712 -0.3255000114440918 0.43619999289512634
          -0.14820000529289246 -0.9656000137329102 -0.21359999477863312 0.015399999916553497 -0.954200029373169 -0.2987000048160553
          -0.41019999980926514 -0.9031999707221985 0.12620000541210175 -0.8331000208854675 -0.39340001344680786 0.388700008392334
          -0.052000001072883606 -0.9854000210762024 -0.16200000047683716 -0.014299999922513962 -0.9126999974250793 -0.4081999957561493
          0.2897000014781952 -0.9341999888420105 -0.20810000598430634 -0.11990000307559967 -0.9832000136375427 -0.13729999959468842
          -0.18700000643730164 -0.9139000177383423 -0.36010000109672546 -0.8894000053405762 -0.07199999690055847 0.4514000117778778
          0.17980000376701355 -0.9830999970436096 0.03449999913573265 0.11680000275373459 -0.9872999787330627 -0.10740000009536743
          -0.15440000593662262 -0.9822999835014343 -0.10610000044107437 -0.2921000123023987 -0.9192000031471252 0.2639999985694885
          -0.7501000165939331 -0.03920000046491623 0.660099983215332 -0.6140000224113464 -0.2924000024795532 0.7330999970436096
          -0.8122000098228455 -0.24320000410079956 0.5303000211715698 -0.131400004029274 -0.9699000120162964 0.20489999651908875
          -0.027400000020861626 -0.9987000226974487 -0.04360000044107437 -0.07079999893903732 -0.989300012588501 -0.1273999959230423
          -0.43540000915527344 -0.6528000235557556 0.6198999881744385 -0.6662999987602234 -0.14350000023841858 0.7317000031471252
          -0.23229999840259552 -0.9724000096321106 0.01810000091791153 -0.06960000097751617 -0.9699000120162964 -0.23309999704360962
          -0.41040000319480896 -0.8051999807357788 0.42800000309944153 -0.5734999775886536 -0.3188999891281128 0.7544999718666077
          -0.6269000172615051 -0.14869999885559082 0.7648000121116638 -0.09830000251531601 -0.9749000072479248 0.19939999282360077
          0.020999999716877937 -0.9761999845504761 -0.21580000221729279 0.14630000293254852 -0.979200005531311 0.14030000567436218
          -0.2849000096321106 -0.8391000032424927 0.4632999897003174 -0.40310001373291016 -0.4885999858379364 0.7738000154495239
          -0.542900025844574 -0.2992999851703644 0.7846999764442444 0.043699998408555984 -0.6887000203132629 0.7236999869346619
          -0.1670999974012375 -0.44780001044273376 0.8784000277519226 -0.5540000200271606 -0.8205000162124634 -0.14069999754428864
          -0.4415999948978424 -0.728600025177002 -0.5235999822616577 -0.021800000220537186 -0.9984999895095825 0.049300000071525574
          -0.8999000191688538 -0.4361000061035156 -0.00279999990016222 -0.37369999289512634 -0.8217999935150146 0.4300999939441681
          -0.16089999675750732 -0.9797999858856201 -0.11840000003576279 -0.11829999834299088 -0.9861999750137329 -0.11540000140666962
          0.15870000422000885 -0.9850000143051147 -0.06809999793767929 -0.47130000591278076 -0.8759999871253967 -0.1023000031709671
          -0.4262999892234802 -0.8744000196456909 -0.23180000483989716 -0.7519999742507935 -0.6590999960899353 0.007400000002235174
          -0.7006000280380249 -0.6861000061035156 -0.19599999487400055 -0.946399986743927 -0.32109999656677246 -0.0340999998152256
          0.09730000048875809 -0.9923999905586243 -0.07530000060796738 -0.6577000021934509 -0.7531999945640564 0.008700000122189522
          -0.9564999938011169 -0.27489998936653137 0.09790000319480896 0.08460000157356262 -0.9613999724388123 -0.26179999113082886
          0.23109999299049377 -0.9452000260353088 -0.23070000112056732 0.3237999975681305 -0.8981000185012817 -0.29760000109672546
          -0.982200026512146 -0.11020000278949738 0.15219999849796295 0.15230000019073486 -0.9749000072479248 -0.16200000047683716
          0.46059998869895935 -0.8234999775886536 -0.3310999870300293 0.14810000360012054 -0.9646999835968018 -0.21789999306201935
          0.5891000032424927 -0.5996999740600586 -0.5415999889373779 0.6384000182151794 -0.661300003528595 -0.3937000036239624
          0.19689999520778656 -0.9681000113487244 -0.15489999949932098 0.6496999859809875 -0.6186000108718872 -0.44179999828338623
          0.02250000089406967 -0.9908999800682068 -0.13230000436306 -0.8931999802589417 0.03750000149011612 0.4481000006198883
          0.0828000009059906 -0.9569000005722046 -0.2784000039100647 0.3149999976158142 -0.7293999791145325 -0.6072999835014343
          -0.8367999792098999 -0.05469999834895134 0.544700026512146 -0.027499999850988388 -0.9039999842643738 -0.42669999599456787
          0.28189998865127563 -0.652999997138977 -0.7028999924659729 0.23180000483989716 -0.8177000284194946 -0.5268999934196472
          -0.022299999371170998 -0.9552000164985657 -0.29499998688697815 -0.8952999711036682 -0.04809999838471413 0.44279998540878296
          -0.8597999811172485 -0.06030000001192093 0.5070000290870667 0.4848000109195709 -0.7957000136375427 -0.3628000020980835
          -0.8515999913215637 0.05900000035762787 0.520799994468689 0.20999999344348907 -0.9646999835968018 -0.15880000591278076
          0.257999986410141 -0.921999990940094 -0.28870001435279846 -0.7402999997138977 0.03579999879002571 0.6712999939918518
          -0.13989999890327454 -0.9817000031471252 -0.12880000472068787 -0.16930000483989716 -0.9060999751091003 -0.38760000467300415
          0.03759999945759773 -0.9879000186920166 -0.15039999783039093 -0.05380000174045563 -0.9836000204086304 -0.17180000245571136
          -0.20190000534057617 -0.8966000080108643 -0.39410001039505005 -0.6894999742507935 -0.03669999912381172 0.7232999801635742
          -0.6793000102043152 -0.05590000003576279 0.7317000031471252 0.10270000249147415 -0.9904000163078308 0.09229999780654907
          0.007499999832361937 -0.9993000030517578 0.03550000116229057 -0.07289999723434448 -0.9973000288009644 -0.00559999980032444
          -0.64410001039505 0.02370000071823597 0.7645999789237976 0.012799999676644802 -0.9843000173568726 -0.1762000024318695
          0.01119999960064888 -0.9980999827384949 -0.060499999672174454 -0.589900016784668 0.012799999676644802 0.8072999715805054
          0.13529999554157257 -0.9908000230789185 -0.006800000090152025 0.2513999938964844 -0.958899974822998 -0.13109999895095825
          0.5698000192642212 -0.7976999878883362 0.19750000536441803 -0.39079999923706055 -0.04830000177025795 0.9192000031471252
          0.35190001130104065 -0.6216999888420105 0.6996999979019165 0.1615999937057495 -0.2734000086784363 0.948199987411499
          -0.07169999927282333 -0.14800000190734863 0.9864000082015991 -0.12099999934434891 -0.9868999719619751 -0.10679999738931656
          -0.2621999979019165 -0.896399974822998 -0.3573000133037567 0.1225999966263771 -0.9801999926567078 -0.15559999644756317
          -0.20730000734329224 -0.9692000150680542 -0.1324000060558319 -0.4657000005245209 -0.7247999906539917 -0.5076000094413757
          -0.6953999996185303 -0.2822999954223633 -0.6607999801635742 -0.9595999717712402 -0.041999999433755875 -0.27810001373291016
          0.227400004863739 -0.9688000082969666 0.09799999743700027 0.1509999930858612 -0.9836000204086304 -0.0989999994635582
          -0.4934000074863434 -0.8669000267982483 0.07029999792575836 -0.9336000084877014 -0.35830000042915344 -0.002400000113993883
          -0.8564000129699707 -0.48989999294281006 -0.16279999911785126 -0.9832000136375427 -0.17110000550746918 -0.06289999932050705
          0.1517000049352646 -0.9789999723434448 -0.1362999975681305 0.149399995803833 -0.9472000002861023 -0.28360000252723694
          0.23899999260902405 -0.9643999934196472 -0.11289999634027481 -0.9959999918937683 -0.029500000178813934 0.08410000056028366
          0.2800999879837036 -0.9599999785423279 -0.004000000189989805 0.7099999785423279 -0.694100022315979 0.11829999834299088
          0.1720000058412552 -0.9848999977111816 -0.021400000900030136 -0.9878000020980835 0.03880000114440918 0.15070000290870667
          0.7699000239372253 -0.6065999865531921 -0.1981000006198883 -0.9740999937057495 0.06669999659061432 0.21619999408721924
          -0.9611999988555908 0.04859999939799309 0.27149999141693115 0.8848999738693237 -0.19589999318122864 -0.42250001430511475
          -0.9272000193595886 0.1046999990940094 0.359499990940094 0.8531000018119812 -0.09040000289678574 -0.5138000249862671
          0.8654999732971191 -0.08209999650716782 -0.4941999912261963 -0.883400022983551 0.11180000007152557 0.45489999651908875
          0.77920001745224 -0.04659999907016754 -0.625 0.6053000092506409 -0.11789999902248383 -0.7871999740600586
          -0.867900013923645 0.0771000012755394 0.49059998989105225 0.25279998779296875 -0.3073999881744385 -0.9174000024795532
          0.41999998688697815 -0.70169997215271 -0.5755000114440918 -0.8522999882698059 -0.0020000000949949026 0.5230000019073486
          -0.1826999932527542 -0.9747999906539917 -0.12759999930858612 -0.31290000677108765 -0.7222999930381775 -0.6166999936103821
          -0.22789999842643738 -0.9445000290870667 -0.2363000065088272 -0.46320000290870667 -0.8435999751091003 -0.27160000801086426
          -0.46380001306533813 -0.5823000073432922 -0.6676999926567078 -0.5824999809265137 -0.3544999957084656 -0.7314000129699707
          0.41850000619888306 -0.7623999714851379 -0.4934999942779541 -0.8363999724388123 0.022199999541044235 0.5476999878883362
          -0.8382999897003174 -0.01209999993443489 0.5450999736785889 -0.08749999850988388 -0.9828000068664551 -0.16259999573230743
          -0.22920000553131104 -0.933899998664856 -0.2745000123977661 -0.24580000340938568 -0.6086999773979187 -0.7542999982833862
          -0.13249999284744263 -0.9157999753952026 -0.3790000081062317 -0.784600019454956 0.08209999650716782 0.6144999861717224
          -0.796500027179718 0.029999999329447746 0.6037999987602234 -0.02160000056028366 -0.998199999332428 -0.05570000037550926
          -0.1492999941110611 -0.9758999943733215 -0.1590999960899353 -0.2863999903202057 -0.9093999862670898 -0.30169999599456787
          -0.1762000024318695 -0.9384999871253967 -0.2969000041484833 -0.6593000292778015 -0.02759999968111515 0.7512999773025513
          -0.6955000162124634 0.025499999523162842 0.7181000113487244 0.30489999055862427 -0.9311000108718872 0.20000000298023224
          -0.01810000091791153 -0.998199999332428 0.056299999356269836 -0.6345000267028809 0.0203000009059906 0.772599995136261
          0.195700004696846 -0.9726999998092651 0.1242000013589859 0.569100022315979 -0.7907999753952026 0.22499999403953552
          -0.5968000292778015 0.01510000042617321 0.8022000193595886 0.5751000046730042 -0.729200005531311 0.3707999885082245
          0.72079998254776 -0.5292999744415283 0.44749999046325684 -0.24079999327659607 -0.000699999975040555 0.9704999923706055
          -0.49709999561309814 0.014299999922513962 0.8676000237464905 0.5961999893188477 -0.2101999968290329 0.7748000025749207
          0.2906000018119812 -0.0934000015258789 0.9521999955177307 0.03139999881386757 -0.042399998754262924 0.9986000061035156
          -0.3749000132083893 -0.890999972820282 -0.25589999556541443 -0.4165000021457672 -0.6219000220298767 -0.663100004196167
          -0.027699999511241913 -0.9319000244140625 -0.36169999837875366 -0.6899999976158142 -0.5121999979019165 -0.5113999843597412
          0.0729999989271164 -0.9940999746322632 0.07989999651908875 0.032600000500679016 -0.9950000047683716 -0.09440000355243683
          -0.2930999994277954 -0.9078999757766724 -0.2996000051498413 -0.7504000067710876 -0.3846000134944916 -0.5375999808311462
          -0.6450999975204468 -0.6606000065803528 -0.383899986743927 -0.8310999870300293 -0.2273000031709671 -0.5076000094413757
          0.16509999334812164 -0.977400004863739 -0.131400004029274 -0.8112000226974487 -0.16329999268054962 -0.5615000128746033
          -0.9340999722480774 0.053199999034404755 -0.3529999852180481 0.22949999570846558 -0.9724000096321106 0.0421999990940094
          0.33340001106262207 -0.932699978351593 0.13750000298023224 0.26600000262260437 -0.9581000208854675 -0.10610000044107437
          0.47940000891685486 -0.8680999875068665 -0.12839999794960022 -0.9915000200271606 -0.009600000455975533 -0.12929999828338623
          -0.9980000257492065 0.012000000104308128 -0.06129999831318855 -0.22930000722408295 -0.921999990940094 -0.31209999322891235
          -0.131400004029274 0.10220000147819519 -0.9860000014305115 0.8140000104904175 -0.4747999906539917 -0.33469998836517334
          0.12389999628067017 -0.9919999837875366 0.02410000003874302 -0.043699998408555984 -0.3499999940395355 -0.935699999332428
          -0.9937000274658203 0.06129999831318855 0.094200000166893 0.29919999837875366 -0.5375999808311462 0.7882999777793884
          0.7278000116348267 -0.258899986743927 0.6349999904632568 0.8733999729156494 -0.2734000086784363 0.40290001034736633
          0.9634000062942505 -0.24940000474452972 0.09799999743700027 0.9690999984741211 -0.23649999499320984 -0.06960000097751617
          -0.984000027179718 0.035599999129772186 0.17419999837875366 0.9729999899864197 -0.00019999999494757503 -0.2305999994277954
          -0.9846000075340271 -0.07159999758005142 0.15950000286102295 -0.9449999928474426 -0.031099999323487282 0.3253999948501587
          -0.9571999907493591 -0.12720000743865967 0.25999999046325684 -0.9160000085830688 0.012199999764561653 0.4009000062942505
          -0.9108999967575073 -0.08910000324249268 0.4027000069618225 0.8583999872207642 -0.047200001776218414 -0.510699987411499
          -0.8948000073432922 0.08579999953508377 0.43810001015663147 -0.8816999793052673 -0.01730000041425228 0.4713999927043915
          0.46540001034736633 -0.13379999995231628 -0.8748999834060669 0.5752999782562256 -0.14959999918937683 -0.804099977016449
          0.32690000534057617 -0.705299973487854 -0.6290000081062317 0.12430000305175781 -0.36239999532699585 -0.9236999750137329
          0.5537999868392944 -0.7044000029563904 -0.4438999891281128 0.13259999454021454 -0.12099999934434891 -0.9836999773979187
          -0.8605999946594238 0.04670000076293945 0.5072000026702881 -0.1941000074148178 -0.965399980545044 -0.17389999330043793
          -0.4429999887943268 -0.7444000244140625 -0.49950000643730164 -0.007799999788403511 -0.9632999897003174 -0.26840001344680786
          -0.48089998960494995 -0.5715000033378601 -0.664900004863739 -0.4221999943256378 -0.09459999948740005 -0.9014999866485596
          -0.429500013589859 -0.008999999612569809 -0.902999997138977 -0.41589999198913574 0.03629999980330467 -0.9086999893188477
          0.6017000079154968 -0.7851999998092651 -0.1459999978542328 0.47679999470710754 -0.6014999747276306 -0.640999972820282
          -0.8011999726295471 0.021199999377131462 0.5978999733924866 0.15129999816417694 -0.9865999817848206 0.0608999989926815
          0.08789999783039093 -0.993399977684021 -0.07270000129938126 -0.12160000205039978 -0.9794999957084656 -0.16030000150203705
          -0.13779999315738678 -0.9836999773979187 -0.1152999997138977 -0.055799998342990875 -0.40959998965263367 -0.9104999899864197
          -0.7562000155448914 0.051899999380111694 0.6521999835968018 0.13379999995231628 -0.9853000044822693 -0.1062999963760376
          0.16410000622272491 -0.9842000007629395 -0.06599999964237213 -0.696399986743927 0.0640999972820282 0.7148000001907349
          0.40860000252723694 -0.8427000045776367 0.350600004196167 0.37439998984336853 -0.8801000118255615 0.2919999957084656
          0.5356000065803528 -0.737500011920929 0.4113999903202057 -0.6342999935150146 0.025599999353289604 0.772599995136261
          0.571399986743927 -0.7014999985694885 0.4259999990463257 0.7358999848365784 -0.5311999917030334 0.4198000133037567
          -0.5766000151634216 0.022700000554323196 0.8166999816894531 -0.5812000036239624 0.011500000022351742 0.8137000203132629
          0.8179000020027161 -0.3237000107765198 0.475600004196167 0.7803999781608582 -0.17820000648498535 0.5993000268936157
          0.6600000262260437 -0.09700000286102295 0.7448999881744385 0.3522999882698059 -0.032099999487400055 0.9352999925613403
          0.06499999761581421 -0.005900000222027302 0.9979000091552734 0.07209999859333038 -0.9758999943733215 -0.20600000023841858
          -0.21960000693798065 -0.677299976348877 -0.7020999789237976 0.03539999946951866 -0.9781000018119812 -0.20499999821186066
          -0.4982999861240387 -0.27410000562667847 -0.8224999904632568 -0.7135999798774719 -0.20520000159740448 -0.6697999835014343
          -0.7437000274658203 -0.05889999866485596 -0.6658999919891357 0.11240000277757645 -0.9901999831199646 -0.08299999684095383
          0.010999999940395355 -0.9994000196456909 -0.033399999141693115 -0.7494000196456909 -0.012799999676644802 -0.6620000004768372
          -0.8353999853134155 0.007699999958276749 -0.5494999885559082 -0.10080000013113022 -0.993399977684021 0.054499998688697815
          -0.1404999941587448 -0.9692999720573425 -0.20149999856948853 -0.04410000145435333 -0.9987000226974487 0.02590000070631504
          -0.02759999968111515 -0.9994000196456909 0.022199999541044235 -0.2304999977350235 -0.9563000202178955 -0.18000000715255737
          -0.8704000115394592 -0.003100000089034438 -0.49219998717308044 -0.9699000120162964 0.05299999937415123 -0.23739999532699585
          -0.91839998960495 0.021199999377131462 -0.3950999975204468 -0.9700999855995178 0.007799999788403511 -0.24250000715255737
          0.15870000422000885 -0.9332000017166138 0.32249999046325684 0.06300000101327896 -0.930899977684021 0.3596000075340271
          0.2526000142097473 -0.9383999705314636 0.23549999296665192 -0.9972000122070312 0.06759999692440033 -0.032999999821186066
          0.7720999717712402 0.6240000128746033 -0.12020000070333481 0.46380001306533813 -0.6467000246047974 0.6054999828338623
          0.27129998803138733 -0.5443000197410583 0.7937999963760376 0.7824000120162964 0.5425000190734863 -0.3057999908924103
          0.9625999927520752 -0.030500000342726707 0.26910001039505005 -0.9969000220298767 0.02889999933540821 0.07249999791383743
          0.9485999941825867 0.00559999980032444 0.3163999915122986 0.9869999885559082 -0.13699999451637268 0.08370000123977661
          -0.993399977684021 -0.04839999973773956 0.1039000004529953 0.9934999942779541 -0.09369999915361404 -0.0649000033736229
          -0.9878000020980835 -0.06019999831914902 0.14329999685287476 -0.9556000232696533 0.007499999832361937 0.2946999967098236
          0.9459999799728394 -0.010999999940395355 -0.3239000141620636 -0.9203000068664551 -0.010900000110268593 0.39089998602867126
          -0.8794000148773193 -0.038100000470876694 0.4745999872684479 0.477400004863739 0.0203000009059906 -0.8784000277519226
          -0.8755000233650208 0.04100000113248825 0.4814999997615814 -0.8632000088691711 -0.009600000455975533 0.5045999884605408
          -0.4262000024318695 -0.8098000288009644 -0.40310001373291016 -0.4884999990463257 -0.6419000029563904 -0.5910000205039978
          -0.210999995470047 -0.8902000188827515 -0.4036000072956085 -0.8472999930381775 -0.3564999997615814 -0.3935999870300293
          0.15389999747276306 -0.13740000128746033 -0.9785000085830688 0.5735999941825867 -0.3305000066757202 -0.7494999766349792
          -0.009600000455975533 -0.06849999725818634 -0.9976000189781189 0.06159999966621399 -0.9807000160217285 -0.18520000576972961
          -0.00039999998989515007 -0.9276999831199646 -0.373199999332428 0.1468999981880188 -0.98580002784729 -0.08089999854564667
          -0.7368000149726868 -0.3027999997138977 -0.6043999791145325 -0.5331000089645386 -0.03759999945759773 -0.8452000021934509
          -0.43700000643730164 -0.042399998754262924 -0.8985000252723694 0.47360000014305115 -0.7663000226020813 -0.4339999854564667
          0.38690000772476196 -0.6148999929428101 -0.6872000098228455 -0.8177000284194946 0.03709999844431877 0.574400007724762
          0.1746000051498413 -0.9843000173568726 -0.025499999523162842 -0.24819999933242798 -0.22759999334812164 -0.9416000247001648
          -0.7597000002861023 0.005799999926239252 0.6502000093460083 0.2321999967098236 -0.972599983215332 0.007000000216066837
          0.3077000081539154 -0.9467999935150146 -0.09399999678134918 0.6779000163078308 -0.7179999947547913 0.15770000219345093
          -0.7206000089645386 0.06120000034570694 0.6905999779701233 -0.7368999719619751 0.008700000122189522 0.6758999824523926
          0.6428999900817871 -0.5742999911308289 0.5066999793052673 0.5745999813079834 -0.6086999773979187 0.546999990940094
          0.7343999743461609 -0.2919999957084656 0.6126999855041504 -0.6367999911308289 0.019700000062584877 0.7706999778747559
          -0.6554999947547913 0.03009999915957451 0.7544999718666077 0.7251999974250793 -0.41100001335144043 0.5523999929428101
          0.7939000129699707 -0.3009999990463257 0.5281999707221985 0.8235999941825867 -0.195700004696846 0.5322999954223633
          -0.6080999970436096 0.015300000086426735 0.7936999797821045 0.8253999948501587 -0.17970000207424164 0.535099983215332
          0.7950000166893005 -0.10369999706745148 0.5976999998092651 -0.3977000117301941 0.05790000036358833 0.9156000018119812
          -0.49380001425743103 0.04360000044107437 0.8684999942779541 0.680899977684021 -0.0625 0.7297000288963318
          0.4133000075817108 -0.011800000444054604 0.9104999899864197 0.13989999890327454 0.03229999914765358 0.9896000027656555
          -0.16449999809265137 0.06360000371932983 0.9843000173568726 -0.14880000054836273 -0.958899974822998 -0.24160000681877136
          -0.17190000414848328 -0.7073000073432922 -0.6855999827384949 0.060100000351667404 -0.9775999784469604 -0.20149999856948853
          -0.14000000059604645 -0.9599999785423279 -0.24230000376701355 -0.2962000072002411 -0.6090999841690063 -0.7357000112533569
          -0.3562000095844269 -0.26809999346733093 -0.8950999975204468 -0.4805999994277954 -0.09260000288486481 -0.871999979019165
          -0.6931999921798706 0.0019000000320374966 -0.7207000255584717 -0.7264999747276306 0.04809999838471413 -0.6855000257492065
          0.06610000133514404 -0.9937999844551086 0.08879999816417694 -0.048900000751018524 -0.9959999918937683 -0.07479999959468842
          -0.0989999994635582 -0.9904999732971191 -0.09489999711513519 -0.7271999716758728 0.04610000178217888 -0.6848999857902527
          -0.8514999747276306 0.028300000354647636 -0.5235000252723694 -0.8108000159263611 0.040300000458955765 -0.5838000178337097
          -0.8389999866485596 0.06129999831318855 -0.5406000018119812 -0.125900000333786 -0.9886000156402588 0.08190000057220459
          -0.23520000278949738 -0.9272000193595886 -0.29120001196861267 0.09279999881982803 -0.991100013256073 -0.09489999711513519
          -0.2689000070095062 -0.9312000274658203 -0.24580000340938568 -0.8960999846458435 0.021700000390410423 -0.4431999921798706
          -0.9693999886512756 0.05979999899864197 -0.23810000717639923 0.17170000076293945 -0.9283000230789185 0.3296999931335449
          0.029400000348687172 -0.9054999947547913 0.42329999804496765 0.11990000307559967 -0.8955000042915344 0.4284000098705292
          -0.9958000183105469 0.0843999981880188 -0.0333000011742115 0.1331000030040741 -0.6901999711990356 0.7111999988555908
          0.2711000144481659 -0.5430999994277954 0.794700026512146 0.3077000081539154 0.010099999606609344 0.9513999819755554
          0.6176000237464905 0.028999999165534973 0.7858999967575073 0.9097999930381775 0.09600000083446503 0.40380001068115234
          -0.9998999834060669 0.010300000198185444 -0.00009999999747378752 -0.9984999895095825 -0.05090000107884407 0.020099999383091927
          0.9843999743461609 0.032499998807907104 0.1729000061750412 0.9952999949455261 -0.08299999684095383 0.04899999871850014
          -0.9943000078201294 -0.030799999833106995 0.10180000215768814 0.9995999932289124 0.010999999940395355 0.026200000196695328
          -0.9768999814987183 0.06939999759197235 0.2021999955177307 0.9944999814033508 0.08179999887943268 -0.06440000236034393
          0.9501000046730042 0.1412999927997589 -0.27810001373291016 0.9666000008583069 -0.08730000257492065 -0.24089999496936798
          -0.9506999850273132 0.10360000282526016 0.2924000024795532 -0.47760000824928284 -0.8784000277519226 -0.015799999237060547
          -0.3440999984741211 -0.9172000288963318 -0.20059999823570251 -0.11580000072717667 -0.9894999861717224 -0.08569999784231186
          -0.8130000233650208 -0.5823000073432922 0.004399999976158142 0.9226999878883362 0.013299999758601189 -0.38510000705718994
          0.9208999872207642 0.06840000301599503 -0.38370001316070557 -0.9222999811172485 0.07289999723434448 0.37940001487731934
          -0.42559999227523804 -0.9021999835968018 0.06939999759197235 -0.06859999895095825 -0.9965999722480774 -0.04529999941587448
          -0.855400025844574 -0.4878999888896942 0.17399999499320984 0.8406999707221985 0.05939999967813492 -0.5382000207901001
          -0.8791000247001648 0.03920000046491623 0.47510001063346863 -0.28600001335144043 -0.9462000131607056 -0.1509999930858612
          -0.8927000164985657 -0.4505000114440918 0.004800000227987766 0.6150000095367432 0.03229999914765358 -0.7878000140190125
          0.004900000058114529 -0.9610000252723694 -0.27649998664855957 0.0026000000070780516 -0.9416999816894531 -0.33649998903274536
          -0.7972000241279602 -0.4068000018596649 -0.44600000977516174 -0.8483999967575073 -0.006300000008195639 -0.5292999744415283
          0.304500013589859 0.14329999685287476 -0.9416000247001648 0.5335000157356262 -0.16269999742507935 -0.8299999833106995
          -0.0066999997943639755 0.0697999969124794 -0.9975000023841858 0.19339999556541443 0.029500000178813934 -0.9807000160217285
          -0.8597999811172485 -0.0017000000225380063 0.5105000138282776 -0.016100000590085983 -0.9891999959945679 -0.14569999277591705
          0.45179998874664307 -0.6467999815940857 -0.6144000291824341 0.6195999979972839 -0.767300009727478 0.1655000001192093
          -0.004999999888241291 -0.991100013256073 -0.13269999623298645 0.07769999653100967 -0.8925999999046326 -0.4440000057220459
          -0.640500009059906 -0.03739999979734421 -0.7670999765396118 -0.36980000138282776 -0.13770000636577606 -0.9187999963760376
          0.09120000153779984 -0.32820001244544983 -0.9401999711990356 -0.817300021648407 0.0478999987244606 0.5741999745368958