<?xml version="1.0"?>
<VTKFile type="PolyData" version="0.1" byte_order="LittleEndian" header_type="UInt32" compressor="vtkZLibDataCompressor">
  <PolyData>
    <FieldData>
      <Array type="String" Name="MaterialNames" NumberOfTuples="1" format="ascii">
        109 97 116 101 114 105 97 108 95 48 0
      </Array>
      <Array type="String" Name="MaterialLibraries" NumberOfTuples="1" format="ascii">
        109 97 116 101 114 105 97 108 46 109 116 108 0
      </Array>
    </FieldData>
    <Piece NumberOfPoints="14642" NumberOfVerts="0" NumberOfLines="0" NumberOfStrips="0" NumberOfPolys="29317">
      <PointData Normals="Normals">
        <DataArray type="Float32" Name="Normals" NumberOfComponents="3" format="ascii" RangeMin="0.9999267981418125" RangeMax="1.0000777990830836">
          0.5734000205993652 -0.7940999865531921 -0.20149999856948853 0.003800000064074993 -0.9707000255584717 0.24009999632835388
          -0.08150000125169754 -0.9185000061988831 -0.38679999113082886 0.7799000144004822 -0.5440999865531921 0.3093000054359436
          0.17260000109672546 -0.9175000190734863 0.35830000042915344 -0.18299999833106995 -0.9628000259399414 -0.19900000095367432
          0.79830002784729 -0.47099998593330383 0.3752000033855438 0.5328999757766724 -0.7649999856948853 -0.36149999499320984
          0.041200000792741776 -0.8889999985694885 -0.4560999870300293 0.9429000020027161 -0.3305000066757202 -0.0406000018119812
          0.295199990272522 -0.9322999715805054 -0.20919999480247498 -0.042100001126527786 -0.9363999962806702 0.34850001335144043
          -0.057500001043081284 -0.8543000221252441 -0.5166000127792358 0.7282999753952026 -0.5835999846458435 -0.35929998755455017
          0.9182000160217285 -0.3711000084877014 -0.1387999951839447 0.7045999765396118 -0.3589000105857849 -0.6121000051498413
          0.24390000104904175 -0.9675999879837036 -0.06480000168085098 -0.08179999887943268 -0.9286999702453613 -0.36169999837875366
          0.5857999920845032 -0.7645000219345093 -0.26910001039505005 0.8582000136375427 -0.47440001368522644 0.19619999825954437
          0.4147999882698059 -0.9093000292778015 0.03319999948143959 0.3919999897480011 -0.9118000268936157 0.1225999966263771
          -0.02969999983906746 -0.9934999942779541 -0.10980000346899033 0.6922000050544739 -0.6744999885559082 0.2567000091075897
          0.3043999969959259 -0.9521999955177307 0.023900000378489494 -0.14820000529289246 -0.9803000092506409 -0.13099999725818634
          0.7641000151634216 -0.6169000267982483 0.18860000371932983 -0.19470000267028809 -0.9670000076293945 -0.16429999470710754
          0.0729999989271164 -0.9754999876022339 -0.20730000734329224 0.9628000259399414 -0.14489999413490295 0.22830000519752502
          0.09369999915361404 -0.9408000111579895 -0.3257000148296356 0.9987000226974487 0.042399998754262924 0.02759999968111515
          0.16060000658035278 -0.9848999977111816 0.0640999972820282 0.010300000198185444 -0.9437000155448914 -0.33079999685287476
          0.6718999743461609 -0.705299973487854 -0.22619999945163727 0.9595999717712402 -0.15449999272823334 -0.23520000278949738
          0.4975000023841858 -0.3788999915122986 -0.7803000211715698 0.883400022983551 -0.25049999356269836 -0.3959999978542328
          0.3716000020503998 -0.9154999852180481 0.15410000085830688 0.07660000026226044 -0.899399995803833 0.430400013923645
          -0.17710000276565552 -0.9710000157356262 -0.16030000150203705 0.7430999875068665 -0.4106999933719635 0.5284000039100647
          -0.06040000170469284 -0.9692999720573425 -0.23829999566078186 0.9305999875068665 -0.0925000011920929 0.35420000553131104
          0.5845000147819519 -0.7366999983787537 -0.3400999903678894 0.15189999341964722 -0.9157000184059143 -0.3720000088214874
          0.9628000259399414 -0.26350000500679016 0.06069999933242798 0.6517000198364258 -0.734499990940094 -0.1890999972820282
          -0.11760000139474869 -0.9785000085830688 -0.1695999950170517 -0.21320000290870667 -0.95660001039505 -0.19859999418258667
          0.8791000247001648 -0.3540000021457672 0.31929999589920044 0.7979000210762024 -0.5353000164031982 0.27720001339912415
          0.620199978351593 -0.7687000036239624 0.15629999339580536 -0.30959999561309814 -0.9456999897956848 -0.09910000115633011
          0.9121999740600586 -0.3231000006198883 0.25189998745918274 0.9129999876022339 -0.28600001335144043 0.29109999537467957
          -0.2565000057220459 -0.9663000106811523 -0.019899999722838402 -0.39750000834465027 -0.902400016784668 -0.16619999706745148
          0.9775999784469604 -0.11900000274181366 0.1737000048160553 0.9502000212669373 -0.24459999799728394 0.19329999387264252
          0.1136000007390976 -0.9760000109672546 -0.1860000044107437 -0.266400009393692 -0.9430999755859375 -0.1988999992609024
          0.9939000010490417 0.08619999885559082 0.06909999996423721 0.9914000034332275 -0.1062999963760376 0.07680000364780426
          0.05310000106692314 -0.9707000255584717 -0.2345000058412552 -0.34769999980926514 -0.9366000294685364 -0.042899999767541885
          -0.2078000009059906 -0.8335999846458435 -0.5117999911308289 0.9850999712944031 0.011800000444054604 -0.17170000076293945
          0.3084000051021576 -0.6520000100135803 -0.6927000284194946 0.5740000009536743 -0.10570000112056732 -0.8119999766349792
          0.8568000197410583 -0.00570000009611249 -0.5156000256538391 0.17800000309944153 -0.6862999796867371 0.7052000164985657
          -0.04859999939799309 -0.9987999796867371 -0.004600000102072954 0.746999979019165 -0.06859999895095825 0.661300003528595
          0.12759999930858612 -0.9836000204086304 -0.12720000743865967 0.06019999831914902 -0.9948999881744385 -0.08150000125169754
          -0.14380000531673431 -0.9567000269889832 -0.2531999945640564 0.9215999841690063 0.03999999910593033 0.38609999418258667
          0.26739999651908875 -0.9538000226020813 -0.13689999282360077 0.9678000211715698 -0.06710000336170197 0.24250000715255737
          0.7156999707221985 -0.6880000233650208 0.11980000138282776 0.9362000226974487 -0.29190000891685486 0.19550000131130219
          -0.09939999878406525 -0.9855999946594238 -0.13670000433921814 -0.21619999408721924 -0.9629999995231628 -0.16120000183582306
          0.9247999787330627 -0.2013999968767166 0.32280001044273376 -0.09099999815225601 -0.978600025177002 -0.18469999730587006
          -0.47189998626708984 -0.828000009059906 -0.3027999997138977 -0.5590999722480774 -0.8019000291824341 -0.21070000529289246
          0.9366000294685364 -0.1517000049352646 0.3160000145435333 -0.6233999729156494 -0.7549999952316284 -0.20319999754428864
          0.9817000031471252 -0.10450000315904617 0.15919999778270721 -0.41370001435279846 -0.9068999886512756 -0.0794999971985817
          0.9986000061035156 0.049300000071525574 -0.02070000022649765 0.9944000244140625 -0.10480000078678131 -0.013399999588727951
          -0.23770000040531158 -0.9452999830245972 -0.22360000014305115 0.9593999981880188 0.1599999964237213 -0.2321999967098236
          0.288100004196167 -0.6873000264167786 -0.6668000221252441 0.5989000201225281 -0.1834000051021576 -0.7796000242233276
          0.8313000202178955 0.13339999318122864 -0.5394999980926514 0.25760000944137573 -0.9542999863624573 0.15160000324249268
          -0.0860000029206276 -0.8977000117301941 0.43220001459121704 -0.1932000070810318 -0.9793000221252441 -0.05999999865889549
          0.361299991607666 -0.7347000241279602 0.5741999745368958 0.10830000042915344 -0.9872000217437744 -0.11749999970197678
          -0.2485000044107437 -0.9337999820709229 -0.2574999928474426 0.49810001254081726 -0.6815000176429749 0.5361999869346619
          0.743399977684021 -0.0778999999165535 0.6643000245094299 -0.31929999589920044 -0.9027000069618225 -0.28839999437332153
          0.8924999833106995 0.09319999814033508 0.4413999915122986 -0.21199999749660492 -0.9534000158309937 -0.21480000019073486
          0.9509999752044678 0.050999999046325684 0.3050000071525574 -0.4336000084877014 -0.8629999756813049 -0.25929999351501465
          0.9437999725341797 0.01679999940097332 0.33000001311302185 -0.8481000065803528 -0.37529999017715454 -0.37400001287460327
          0.9247999787330627 0.03009999915957451 0.37929999828338623 -0.9322999715805054 -0.3122999966144562 -0.18219999969005585
          0.9379000067710876 0.0024999999441206455 0.3467999994754791 -0.715499997138977 -0.6984999775886536 -0.011900000274181366
          0.9656000137329102 0.056699998676776886 0.25380000472068787 -0.12030000239610672 -0.9926999807357788 -0.0031999999191612005
          -0.49549999833106995 -0.8589000105857849 0.12919999659061432 -0.30880001187324524 -0.9478999972343445 0.07769999653100967
          0.9958999752998352 -0.03539999946951866 -0.08299999684095383 0.9987000226974487 -0.030899999663233757 0.039400000125169754
          -0.3257000148296356 -0.9448000192642212 0.03539999946951866 -0.06400000303983688 -0.9491000175476074 -0.3084000051021576
          0.9663000106811523 0.06560000032186508 -0.24889999628067017 0.9902999997138977 -0.053300000727176666 -0.12860000133514404
          0.42590001225471497 -0.5429999828338623 -0.7236999869346619 0.11460000276565552 -0.8105000257492065 -0.5745000243186951
          0.2994000017642975 -0.6061999797821045 -0.7368000149726868 0.5996000170707703 -0.323199987411499 -0.7321000099182129
          0.7407000064849854 -0.07609999924898148 -0.6675000190734863 0.8228999972343445 0.09120000153779984 -0.5608999729156494
          0.5351999998092651 -0.28780001401901245 -0.7942000031471252 0.6891000270843506 -0.147599995136261 -0.7095000147819519
          0.0729999989271164 -0.8666999936103821 0.4934999942779541 -0.21580000221729279 -0.9753999710083008 -0.04490000009536743
          0.5630999803543091 -0.4212000072002411 0.7110000252723694 0.31610000133514404 -0.5591999888420105 0.7663999795913696
          0.6134999990463257 -0.24140000343322754 0.7519000172615051 -0.27469998598098755 -0.9053000211715698 -0.3240000009536743
          0.7922000288963318 0.012900000438094139 0.6101999878883362 -0.38119998574256897 -0.9043999910354614 -0.19179999828338623
          0.8841999769210815 0.11800000071525574 0.45190000534057617 -0.2329999953508377 -0.9491000175476074 -0.211899995803833
          -0.6492999792098999 -0.7111999988555908 -0.2696000039577484 -0.6489999890327454 -0.675599992275238 -0.349700003862381
          0.9246000051498413 0.11209999769926071 0.36399999260902405 -0.771399974822998 -0.44999998807907104 -0.4499000012874603
          -0.9110000133514404 -0.09529999643564224 -0.40119999647140503 -0.9821000099182129 -0.00039999998989515007 -0.188400000333786
          -0.9452000260353088 0.01119999960064888 -0.326200008392334 -0.8876000046730042 -0.014299999922513962 -0.46050000190734863
          0.9192000031471252 0.11670000106096268 0.37599998712539673 -0.9991999864578247 -0.010200000368058681 -0.038100000470876694
          -0.9696999788284302 -0.19030000269412994 0.15289999544620514 0.9549999833106995 0.14380000531673431 0.25929999351501465
          -0.625 -0.6535000205039978 0.4268999993801117 -0.41929998993873596 -0.8942999839782715 0.15620000660419464
          0.9976999759674072 0.03400000184774399 0.05889999866485596 -0.3928000032901764 -0.9169999957084656 0.07000000029802322
          -0.05040000006556511 -0.9526000022888184 -0.3000999987125397 0.9846000075340271 -0.04820000007748604 -0.16779999434947968
          0.042500000447034836 -0.7346000075340271 -0.6772000193595886 0.7728999853134155 0.052799999713897705 -0.6323999762535095
          0.8859999775886536 0.04149999842047691 -0.461899995803833 0.32330000400543213 -0.40560001134872437 -0.8550000190734863
          0.527999997138977 -0.061799999326467514 -0.847000002861023 0.6665999889373779 -0.02239999920129776 -0.7451000213623047
          0.2874000072479248 -0.9265999794006348 0.24240000545978546 0.061000000685453415 -0.8179000020027161 0.5720999836921692
          -0.12700000405311584 -0.9836000204086304 0.12780000269412994 0.42980000376701355 -0.47369998693466187 0.7687000036239624
          -0.33500000834465027 -0.9387999773025513 0.08049999922513962 -0.16830000281333923 -0.973800003528595 -0.15289999544620514
          0.446399986743927 -0.4772000014781952 0.7570000290870667 0.6359999775886536 -0.14630000293254852 0.7577000260353088
          -0.39910000562667847 -0.7562000155448914 -0.5185999870300293 -0.1120000034570694 -0.9330999851226807 -0.3416999876499176
          0.7998999953269958 0.05290000140666962 0.5976999998092651 -0.34610000252723694 -0.7922999858856201 -0.5024999976158142
          -0.7073000073432922 -0.6065000295639038 -0.36309999227523804 0.8910999894142151 0.0203000009059906 0.45339998602867126
          -0.9028000235557556 -0.30559998750686646 -0.3025999963283539 -0.8537999987602234 -0.36250001192092896 -0.3736000061035156
          0.9427000284194946 0.05609999969601631 0.328900009393692 -0.8730999827384949 -0.21199999749660492 -0.4390000104904175
          0.9253000020980835 0.09960000216960907 0.3659999966621399 -0.855400025844574 -0.15060000121593475 -0.49549999833106995
          -0.8845000267028809 -0.0551999993622303 -0.46320000290870667 0.9168000221252441 0.10570000112056732 0.38510000705718994
          -0.9599999785423279 -0.06809999793767929 -0.27140000462532043 0.9222000241279602 0.11169999837875366 0.3702999949455261
          -0.9793000221252441 -0.053300000727176666 0.19509999454021454 -0.9028000235557556 -0.1834000051021576 0.38909998536109924
          0.9448000192642212 0.14499999582767487 0.2939000129699707 -0.11760000139474869 -0.9890000224113464 0.08990000188350677
          -0.4027000069618225 -0.7728999853134155 0.4903999865055084 -0.2879999876022339 -0.9391999840736389 0.18700000643730164
          -0.714900016784668 -0.2896000146865845 0.6365000009536743 0.9790999889373779 0.09539999812841415 0.17970000207424164
          -0.31310001015663147 -0.9440000057220459 0.10379999876022339 -0.10930000245571136 -0.9643999934196472 -0.24060000479221344
          0.9589999914169312 -0.04809999838471413 -0.2793999910354614 0.9941999912261963 -0.032499998807907104 -0.10239999741315842
          0.06400000303983688 -0.8503000140190125 -0.5223000049591064 0.1525000035762787 -0.7548999786376953 -0.6378999948501587
          0.7973999977111816 0.032499998807907104 -0.6025000214576721 0.8598999977111816 -0.007899999618530273 -0.5103999972343445
          0.9429000020027161 -0.0406000018119812 -0.3305000066757202 0.3221000134944916 -0.3334999978542328 -0.8859999775886536
          0.46939998865127563 0.014999999664723873 -0.8828999996185303 0.6638000011444092 0.03550000116229057 -0.7470999956130981
          0.016499999910593033 -0.6938999891281128 0.7199000120162964 -0.3330000042915344 -0.9161999821662903 0.22290000319480896
          0.2791999876499176 -0.15369999408721924 0.9477999806404114 -0.3504999876022339 -0.9350000023841858 0.053599998354911804
          -0.164000004529953 -0.9351999759674072 -0.3138999938964844 0.490200012922287 -0.15549999475479126 0.8575999736785889
          0.6776000261306763 -0.0284000001847744 0.7348999977111816 -0.4652000069618225 -0.5978000164031982 -0.652899980545044
          0.782800018787384 0.04450000077486038 0.6207000017166138 -0.6468999981880188 -0.46540001034736633 -0.6040999889373779
          -0.7840999960899353 -0.31679999828338623 -0.5336999893188477 0.830299973487854 -0.1298000067472458 0.5419999957084656
          0.930400013923645 -0.15000000596046448 0.3343999981880188 0.8802000284194946 -0.16740000247955322 0.4440999925136566
          -0.9253000020980835 -0.11129999905824661 -0.36250001192092896 -0.9176999926567078 -0.1599999964237213 -0.3634999990463257
          0.9648000001907349 -0.09319999814033508 0.24609999358654022 0.9496999979019165 -0.1898999959230423 0.249099999666214
          -0.8828999996185303 -0.0032999999821186066 -0.46959999203681946 -0.9031000137329102 -0.010599999688565731 -0.4291999936103821
          0.948199987411499 -0.0015999999595806003 0.31769999861717224 0.9679999947547913 -0.11339999735355377 0.22390000522136688
          -0.8952999711036682 -0.020899999886751175 -0.4449000060558319 0.9343000054359436 0.04830000177025795 0.353300005197525
          -0.9355000257492065 -0.039400000125169754 -0.35100001096725464 0.9496999979019165 -0.06199999898672104 0.3068000078201294
          -0.9972000122070312 -0.07000000029802322 -0.025299999862909317 0.9495999813079834 0.13019999861717224 0.28519999980926514
          -0.4474000036716461 -0.5927000045776367 0.669700026512146 -0.3878999948501587 -0.8698999881744385 0.304500013589859
          -0.6280999779701233 -0.19089999794960022 0.7544000148773193 -0.891700029373169 -0.10440000146627426 0.44029998779296875
          0.9858999848365784 0.09870000183582306 0.13529999554157257 -0.35199999809265137 -0.9294999837875366 0.11010000109672546
          -0.06109999865293503 -0.9577000141143799 -0.28130000829696655 0.9948999881744385 0.061400000005960464 -0.0794999971985817
          0.02419999986886978 -0.7545999884605408 -0.6557999849319458 0.8183000087738037 -0.03849999979138374 -0.5735999941825867
          0.855400025844574 0.025200000032782555 -0.5174000263214111 0.9214000105857849 0.06239999830722809 -0.38359999656677246
          0.2321999967098236 -0.43479999899864197 -0.8701000213623047 0.4097000062465668 -0.006399999838322401 -0.9121999740600586
          0.453000009059906 0.06400000303983688 -0.88919997215271 0.5834000110626221 0.07079999893903732 -0.8090999722480774
          0.7861999869346619 0.005200000014156103 -0.6179999709129333 -0.0284000001847744 -0.9980000257492065 0.0560000017285347
          -0.22040000557899475 -0.8481000065803528 0.48179998993873596 -0.28760001063346863 -0.9521999955177307 0.10279999673366547
          0.08250000327825546 -0.3767000138759613 0.9225999712944031 -0.18569999933242798 -0.9726999998092651 -0.13920000195503235
          0.6320000290870667 0.006000000052154064 0.7749000191688538 0.023600000888109207 -0.7276999950408936 -0.6855000257492065
          -0.13089999556541443 -0.5838000178337097 -0.8012999892234802 0.7365000247955322 0.031300000846385956 0.6757000088691711
          -0.6032999753952026 -0.34360000491142273 -0.7196999788284302 -0.8252999782562256 -0.1543000042438507 -0.5430999994277954
          0.7784000039100647 -0.03959999978542328 0.6265000104904175 0.8434000015258789 -0.11429999768733978 0.5249000191688538
          -0.9136999845504761 -0.03620000183582306 -0.4047999978065491 0.9445000290870667 -0.10379999876022339 0.3116999864578247
          -0.8989999890327454 -0.004800000227987766 -0.43799999356269836 0.9580000042915344 -0.1356000006198883 0.25270000100135803
          -0.899399995803833 0.07530000060796738 -0.43050000071525574 0.9508000016212463 -0.11389999836683273 0.288100004196167
          0.9462000131607056 -0.20090000331401825 0.25380000472068787 -0.9678999781608582 -0.005900000222027302 -0.25130000710487366
          -0.9843000173568726 -0.12430000305175781 0.12540000677108765 0.967199981212616 -0.09009999781847 0.23749999701976776
          0.9466000199317932 -0.25839999318122864 0.19280000030994415 -0.21660000085830688 -0.960099995136261 0.1768999993801117
          -0.3718999922275543 -0.6876999735832214 0.6234999895095825 -0.44699999690055847 -0.21529999375343323 0.8682000041007996
          -0.5802000164985657 -0.15539999306201935 0.7994999885559082 -0.7940000295639038 -0.17399999499320984 0.5824999809265137
          0.9908000230789185 -0.012799999676644802 0.1347000002861023 0.9546999931335449 -0.2574999928474426 0.14920000731945038
          -0.30230000615119934 -0.9453999996185303 0.12139999866485596 -0.14219999313354492 -0.9517999887466431 -0.2718999981880188
          0.9857000112533569 0.10930000245571136 -0.12839999794960022 0.10159999877214432 -0.8422999978065491 -0.5293999910354614
          0.1428000032901764 -0.7678999900817871 -0.6244000196456909 0.8547999858856201 0.10869999974966049 -0.5074999928474426
          0.9230999946594238 0.12919999659061432 -0.36230000853538513 0.2581000030040741 -0.3037000000476837 -0.9171000123023987
          0.3517000079154968 0.07890000194311142 -0.9327999949455261 0.4296000003814697 0.12359999865293503 -0.8945000171661377
          0.5317999720573425 0.1316000074148178 -0.8366000056266785 0.7423999905586243 0.09130000323057175 -0.6636999845504761
          -0.3188000023365021 -0.7287999987602234 0.6060000061988831 -0.35019999742507935 -0.923799991607666 0.1550000011920929
          -0.1388999968767166 -0.2623000144958496 0.9549000263214111 -0.29019999504089355 -0.9570000171661377 -0.0020000000949949026
          0.02449999935925007 -0.9510999917984009 -0.30799999833106995 0.4481000006198883 -0.060499999672174454 0.8919000029563904
          0.5936999917030334 -0.048900000751018524 0.8032000064849854 0.04349999874830246 -0.32350000739097595 -0.9452000260353088
          0.7419999837875366 -0.11949999630451202 0.6596999764442444 -0.451200008392334 -0.25600001215934753 -0.8549000024795532
          -0.7827000021934509 -0.005400000140070915 -0.6223999857902527 0.7523999810218811 -0.23880000412464142 0.6139000058174133
          0.8571000099182129 -0.06729999929666519 0.5108000040054321 -0.916100025177002 0.07370000332593918 -0.39410001039505005
          0.944100022315979 -0.004600000102072954 0.3296999931335449 -0.916100025177002 0.03849999979138374 -0.39899998903274536
          0.9560999870300293 -0.0617000013589859 0.2865999937057495 0.9465000033378601 -0.10769999772310257 0.3041999936103821
          -0.9509000182151794 0.21209999918937683 -0.22529999911785126 0.9449999928474426 -0.14489999413490295 0.2930999994277954
          0.95169997215271 -0.16990000009536743 0.2556999921798706 -0.42559999227523804 -0.4763999879360199 0.7694000005722046
          -0.3264000117778778 -0.8802000284194946 0.34450000524520874 -0.4986000061035156 -0.03480000048875809 0.8661999702453613
          -0.6129000186920166 -0.06120000034570694 0.7878000140190125 -0.8170999884605408 -0.1639000028371811 0.5526000261306763
          0.9828000068664551 -0.18310000002384186 0.021800000220537186 0.972000002861023 -0.19679999351501465 0.12839999794960022
          -0.3626999855041504 -0.9236000180244446 0.12430000305175781 -0.07980000227689743 -0.9535999894142151 -0.29019999504089355
          0.9817000031471252 -0.059300001710653305 -0.1808999925851822 0.9731000065803528 -0.211899995803833 -0.09000000357627869
          -0.0203000009059906 -0.7454000115394592 -0.6662999987602234 0.86080002784729 0.08100000023841858 -0.5024999976158142
          0.9233999848365784 0.032999999821186066 -0.3824000060558319 0.18310000002384186 -0.4424999952316284 -0.8779000043869019
          0.33309999108314514 0.048500001430511475 -0.9416999816894531 0.3749000132083893 0.10350000113248825 -0.9212999939918518
          0.4120999872684479 0.14499999582767487 -0.8995000123977661 0.4948999881744385 0.14830000698566437 -0.8561999797821045
          0.7329000234603882 0.08349999785423279 -0.6751999855041504 -0.06700000166893005 -0.9955999851226807 0.06530000269412994
          -0.34200000762939453 -0.8123000264167786 0.4724000096321106 -0.27469998598098755 -0.9495000243186951 0.1518000066280365
          -0.2782999873161316 -0.3961000144481659 0.875 -0.03889999911189079 -0.188400000333786 0.9812999963760376
          0.21490000188350677 -0.09009999781847 0.9725000262260437 0.05290000140666962 -0.9927999973297119 -0.1071000024676323
          -0.3407999873161316 -0.9366000294685364 0.0812000036239624 -0.15459999442100525 -0.9423999786376953 -0.29670000076293945
          0.37540000677108765 -0.04639999940991402 0.9257000088691711 0.31630000472068787 -0.855400025844574 -0.41019999980926514
          0.01119999960064888 -0.82669997215271 -0.5625 0.33070001006126404 -0.5771999955177307 -0.7466999888420105
          0.6065000295639038 -0.5777999758720398 -0.5461999773979187 0.2728999853134155 -0.3465999960899353 -0.8974000215530396
          0.698199987411499 -0.1907999962568283 0.6899999976158142 0.7483000159263611 -0.1607999950647354 0.6435999870300293
          0.4887999892234802 -0.5390999913215637 -0.6858000159263611 -0.13570000231266022 -0.17339999973773956 -0.9754999876022339
          -0.729200005531311 0.19429999589920044 -0.6560999751091003 0.8537999987602234 0.03180000185966492 0.519599974155426
          -0.9180999994277954 0.1753000020980835 -0.3555999994277954 0.9185000061988831 0.09049999713897705 0.3849000036716461
          -0.9108999967575073 0.11069999635219574 -0.39750000834465027 0.9337999820709229 0.07400000095367432 0.35019999742507935
          -0.8583999872207642 0.24899999797344208 -0.44859999418258667 0.9355999827384949 -0.0003000000142492354 0.3531000018119812
          -0.8889999985694885 0.2791999876499176 -0.3628999888896942 -0.9641000032424927 0.218299999833107 -0.15109999477863312
          -0.95169997215271 0.029100000858306885 -0.30570000410079956 0.9337000250816345 0.016200000420212746 0.357699990272522
          -0.9948999881744385 0.04580000042915344 -0.08959999680519104 -0.9865000247955322 -0.012199999764561653 0.16300000250339508
          0.9473999738693237 -0.013100000098347664 0.3197000026702881 -0.06459999829530716 -0.9868000149726868 0.14869999885559082
          -0.21930000185966492 -0.779699981212616 0.5864999890327454 -0.2500999867916107 -0.9473999738693237 0.1995999962091446
          -0.47850000858306885 0.0746999979019165 0.8748999834060669 -0.64410001039505 0.0803999975323677 0.760699987411499
          -0.8680999875068665 0.007400000002235174 0.49639999866485596 0.9768000245094299 -0.03539999946951866 0.21130000054836273
          -0.0013000000035390258 -0.9944999814033508 -0.1046999990940094 -0.35989999771118164 -0.9287999868392944 0.08799999952316284
          -0.24410000443458557 -0.8752999901771545 -0.41749998927116394 0.9962000250816345 -0.0868000015616417 0.008299999870359898
          0.14630000293254852 -0.8324999809265137 -0.5343999862670898 0.10440000146627426 -0.7457000017166138 -0.6581000089645386
          0.8899000287055969 -0.02850000001490116 -0.4551999866962433 0.9174000024795532 -0.0038999998942017555 -0.39800000190734863
          0.9661999940872192 -0.06809999793767929 -0.2485000044107437 0.13120000064373016 -0.21770000457763672 -0.967199981212616
          0.3898000121116638 0.13770000636577606 -0.9106000065803528 0.4092999994754791 0.15080000460147858 -0.8998000025749207
          0.45840001106262207 0.15479999780654907 -0.8751999735832214 0.6383000016212463 0.09440000355243683 -0.7639999985694885
          0.8561999797821045 -0.03590000048279762 -0.5152999758720398 -0.49300000071525574 -0.6176000237464905 0.6128000020980835
          -0.40560001134872437 -0.8820000290870667 0.23989999294281006 -0.40560001134872437 -0.25609999895095825 0.8774999976158142
          -0.0746999979019165 -0.13779999315738678 0.9876000285148621 0.18299999833106995 -0.07840000092983246 0.9800000190734863
          -0.38760000467300415 -0.9157000184059143 0.10589999705553055 -0.17890000343322754 -0.9684000015258789 -0.1738000065088272
          0.373199999332428 -0.05139999836683273 0.9262999892234802 0.510699987411499 -0.11029999703168869 0.8526999950408936
          0.22310000658035278 -0.8156999945640564 -0.5335999727249146 0.6147000193595886 -0.3555999994277954 -0.7039999961853027
          0.63919997215271 -0.10279999673366547 0.7620999813079834 0.7361000180244446 -0.039400000125169754 0.6758000254631042
          0.3346000015735626 -0.42649999260902405 -0.8403000235557556 0.4916999936103821 -0.14980000257492065 -0.8578000068664551
          -0.15860000252723694 0.14339999854564667 -0.9768999814987183 -0.754800021648407 0.3476000130176544 -0.5562000274658203
          0.8389000296592712 0.09889999777078629 0.5353000164031982 -0.9348999857902527 0.20260000228881836 -0.2912999987602234
          0.8959000110626221 0.12950000166893005 0.42500001192092896 -0.8978000283241272 0.1843000054359436 -0.4000000059604645
          -0.8463000059127808 0.21480000019073486 -0.48739999532699585 -0.8744999766349792 0.16279999911785126 -0.4569000005722046
          -0.8773000240325928 -0.002099999925121665 -0.47999998927116394 0.9211999773979187 0.11010000109672546 0.373199999332428
          -0.9399999976158142 -0.03669999912381172 -0.3393000066280365 0.9160000085830688 0.0982000008225441 0.3889000117778778
          0.2818000018596649 -0.897599995136261 0.3391000032424927 -0.19130000472068787 -0.7678999900817871 0.611299991607666
          -0.09109999984502792 -0.9361000061035156 -0.33970001339912415 0.7261000275611877 -0.3402000069618225 0.5975000262260437
          -0.9991000294685364 0.03660000115633011 0.020400000736117363 0.9337999820709229 0.0820000022649765 0.3483999967575073
          0.616100013256073 -0.7615000009536743 -0.2012999951839447 -0.22859999537467957 -0.9442999958992004 0.23659999668598175
          -0.323199987411499 -0.6500999927520752 0.6876999735832214 -0.2847999930381775 -0.06859999895095825 0.9560999870300293
          -0.42289999127388 0.07199999690055847 0.9032999873161316 -0.32690000534057617 -0.031700000166893005 0.9445000290870667
          -0.5297999978065491 0.05460000038146973 0.8464000225067139 -0.6557999849319458 0.08129999786615372 0.7505000233650208
          -0.8482000231742859 0.13899999856948853 0.5110999941825867 -0.9628999829292297 0.11649999767541885 0.2433999925851822
          0.9692000150680542 0.07419999688863754 0.23479999601840973 -0.2904999852180481 -0.9552000164985657 0.05700000002980232
          -0.16979999840259552 -0.9150999784469604 -0.36559998989105225 -0.3901999890804291 -0.08820000290870667 0.9164999723434448
          -0.4821000099182129 -0.09510000050067902 0.8708999752998352 0.9976999759674072 0.06700000166893005 -0.0052999998442828655
          -0.13510000705718994 -0.6373999714851379 -0.7585999965667725 0.9573000073432922 0.053199999034404755 -0.2840999960899353