<?xml version="1.0"?>
<VTKFile type="PolyData" version="0.1" byte_order="LittleEndian" header_type="UInt32" compressor="vtkZLibDataCompressor">
  <PolyData>
    <FieldData>
      <Array type="String" Name="MaterialNames" NumberOfTuples="1" format="ascii">
        109 97 116 101 114 105 97 108 95 48 0
      </Array>
      <Array type="String" Name="MaterialLibraries" NumberOfTuples="1" format="ascii">
        109 97 116 101 114 105 97 108 46 109 116 108 0
      </Array>
    </FieldData>
    <Piece NumberOfPoints="10651" NumberOfVerts="0" NumberOfLines="0" NumberOfStrips="0" NumberOfPolys="21920">
      <PointData Normals="Normals">
        <DataArray type="Float32" Name="Normals" NumberOfComponents="3" format="ascii" RangeMin="0.9999222564628442" RangeMax="1.0000755342823628">
          0.18529999256134033 -0.0957999974489212 -0.9779999852180481 0.26750001311302185 0.09309999644756317 -0.9591000080108643
          0.4968000054359436 0.07249999791383743 -0.864799976348877 -0.4156999886035919 -0.0608999989926815 0.9075000286102295
          -0.5600000023841858 -0.042100001126527786 0.8274000287055969 -0.4812999963760376 -0.010499999858438969 0.8765000104904175
          0.5152000188827515 0.14790000021457672 0.8442000150680542 0.7516999840736389 0.2281000018119812 0.6187000274658203
          0.656000018119812 -0.002099999925121665 0.7547000050544739 0.35409998893737793 0.05559999868273735 -0.9334999918937683
          -0.018300000578165054 0.036400001496076584 -0.9991999864578247 0.13120000064373016 -0.06199999898672104 -0.9894000291824341
          -0.7199000120162964 -0.4180999994277954 0.554099977016449 -0.8167999982833862 -0.29420000314712524 0.49630001187324524
          -0.5846999883651733 -0.18410000205039978 0.7900999784469604 -0.9674000144004822 -0.17649999260902405 -0.18170000612735748
          -0.9138000011444092 0.3887999951839447 0.1177000030875206 -0.9320999979972839 -0.2150000035762787 0.2913999855518341
          -0.06199999898672104 -0.16949999332427979 -0.9836000204086304 -0.2703000009059906 -0.18549999594688416 -0.9447000026702881
          -0.2728999853134155 -0.2206999957561493 -0.9363999962806702 0.6567999720573425 0.35600000619888306 0.6646999716758728
          0.48420000076293945 0.3799000084400177 0.7882000207901001 0.5103999972343445 0.4350999891757965 0.7418000102043152
          0.6001999974250793 0.15369999408721924 0.7849000096321106 0.5609999895095825 0.1656000018119812 0.8111000061035156
          0.5056999921798706 0.18729999661445618 0.8421000242233276 0.12630000710487366 0.9901000261306763 0.06109999865293503
          0.15360000729560852 0.9878000020980835 0.026000000536441803 0.13289999961853027 0.9908999800682068 0.02280000038444996
          -0.25220000743865967 0.24169999361038208 0.9369999766349792 0.336899995803833 0.11900000274181366 0.9340000152587891
          -0.2842000126838684 -0.22689999639987946 0.9315000176429749 0.7612000107765198 0.5914000272750854 0.2660999894142151
          0.9871000051498413 0.0608999989926815 -0.14839999377727509 0.44190001487731934 -0.3449999988079071 0.8281000256538391
          -0.8575000166893005 0.43619999289512634 -0.2728999853134155 -0.6108999848365784 0.2003999948501587 -0.7659000158309937
          -0.7893000245094299 0.5770999789237976 0.2094999998807907 0.6827999949455261 -0.7304999828338623 -0.01269999984651804
          0.44130000472068787 -0.8235999941825867 -0.3562000095844269 0.7919999957084656 -0.5616000294685364 0.2395000010728836
          0.7423999905586243 0.48559999465942383 0.46149998903274536 0.5896999835968018 0.3709999918937683 0.7174000144004822
          0.7592999935150146 0.3497999906539917 0.5486999750137329 0.7664999961853027 0.6333000063896179 0.10649999976158142
          0.5213000178337097 0.7803999781608582 0.34529998898506165 0.673799991607666 0.4950999915599823 -0.5486000180244446
          -0.10589999705553055 -0.41370001435279846 -0.90420001745224 0.04039999842643738 -0.07800000160932541 -0.9961000084877014
          -0.147599995136261 0.1965000033378601 -0.9692999720573425 -0.9905999898910522 -0.046799998730421066 0.12849999964237213
          -0.8353000283241272 -0.23970000445842743 0.49480000138282776 -0.9508000016212463 -0.164000004529953 0.26269999146461487
          -0.6629999876022339 0.4603999853134155 -0.5903000235557556 0.030400000512599945 0.9988999962806702 -0.03579999879002571
          -0.7182000279426575 0.49160000681877136 0.49239999055862427 -0.9643999934196472 0.24169999361038208 0.10750000178813934
          -0.9164999723434448 0.3765999972820282 -0.13449999690055847 -0.5566999912261963 0.763700008392334 0.32679998874664307
          -0.021199999377131462 0.12219999730587006 0.9922999739646912 -0.1688999980688095 -0.025499999523162842 0.9853000044822693
          -0.1120000034570694 -0.1606999933719635 0.9805999994277954 -0.3310000002384186 0.4101000130176544 0.8499000072479248
          -0.8144999742507935 0.13619999587535858 0.5638999938964844 -0.5200999975204468 0.4991999864578247 0.6930000185966492
          -0.8493000268936157 0.5253000259399414 -0.052400000393390656 -0.909600019454956 0.41029998660087585 -0.06530000269412994
          -0.8963000178337097 0.43230000138282776 0.09839999675750732 -0.38830000162124634 -0.3012000024318695 -0.8708999752998352
          -0.5888000130653381 -0.3411000072956085 -0.7328000068664551 -0.4390999972820282 -0.3546000123023987 -0.8255000114440918
          0.019500000402331352 -0.9865999817848206 -0.16210000216960907 -0.41370001435279846 -0.9010999798774719 0.13030000030994415
          -0.13339999318122864 -0.9733999967575073 -0.18619999289512634 0.6923999786376953 0.4887999892234802 -0.5307000279426575
          0.30160000920295715 0.8148999810218811 -0.4948999881744385 0.6897000074386597 0.4050999879837036 -0.6001999974250793
          0.6700999736785889 -0.00989999994635582 -0.7422000169754028 0.6118000149726868 -0.019899999722838402 -0.7907999753952026
          0.7063999772071838 -0.03020000085234642 -0.7071999907493591 0.9682000279426575 -0.06120000034570694 0.2425999939441681
          0.953000009059906 -0.014499999582767487 0.3027999997138977 0.9409000277519226 0.027499999850988388 0.3375000059604645
          -0.6421999931335449 0.15800000727176666 0.7501000165939331 -0.6764000058174133 -0.016499999910593033 0.7364000082015991
          -0.566100001335144 0.002099999925121665 0.8242999911308289 -0.4187999963760376 0.16410000622272491 0.8931000232696533
          -0.20399999618530273 0.1678999960422516 0.9645000100135803 -0.40700000524520874 0.21160000562667847 0.8885999917984009
          0.23070000112056732 -0.2410999983549118 -0.9427000284194946 0.373199999332428 -0.01080000028014183 -0.9276999831199646
          0.13349999487400055 -0.05139999836683273 -0.9897000193595886 -0.18330000340938568 0.9221000075340271 -0.3407000005245209
          -0.07609999924898148 0.9057000279426575 -0.4169999957084656 -0.3181999921798706 0.8773000240325928 -0.35920000076293945
          -0.21320000290870667 -0.018300000578165054 0.9768000245094299 -0.11919999867677689 0.10350000113248825 0.987500011920929
          -0.20350000262260437 0.002199999988079071 0.9790999889373779 -0.7843999862670898 -0.0746999979019165 -0.6157000064849854
          -0.45750001072883606 0.08150000125169754 -0.8853999972343445 -0.7936999797821045 -0.08449999988079071 -0.602400004863739
          -0.9689000248908997 -0.24719999730587006 -0.006300000008195639 -0.9505000114440918 -0.29409998655319214 -0.09989999979734421
          -0.9107000231742859 -0.17239999771118164 -0.37529999017715454 0.07360000163316727 0.7659000158309937 0.6388000249862671
          0.44029998779296875 0.35010001063346863 0.8267999887466431 0.6960999965667725 0.5672000050544739 0.4401000142097473
          -0.4311000108718872 0.40700000524520874 -0.8052999973297119 -0.6032999753952026 0.4830000102519989 -0.6347000002861023
          -0.6863999962806702 0.38909998536109924 -0.614300012588501 0.28690001368522644 -0.10939999669790268 0.95169997215271
          -0.016100000590085983 -0.17810000479221344 0.9839000105857849 -0.2029999941587448 -0.4936000108718872 0.8457000255584717
          0.947700023651123 0.2879999876022339 0.13740000128746033 0.9987000226974487 0.006899999920278788 -0.05090000107884407
          0.04879999905824661 0.42179998755455017 0.9053999781608582 0.8659999966621399 0.28290000557899475 -0.4124000072479248
          0.8729000091552734 0.41179999709129333 -0.26179999113082886 -0.12269999831914902 0.9718999862670898 0.20080000162124634
          0.5889999866485596 0.8080000281333923 -0.014499999582767487 0.8075000047683716 0.5773000121116638 0.12129999697208405
          0.8130999803543091 0.5611000061035156 -0.1551000028848648 0.8158000111579895 0.5145000219345093 -0.26420000195503235
          -0.6273999810218811 -0.7781000137329102 -0.030300000682473183 0.3880999982357025 -0.7720999717712402 -0.5033000111579895
          -0.3774000108242035 -0.60589998960495 -0.7002999782562256 -0.48840001225471497 0.07620000094175339 0.8693000078201294
          -0.0044999998062849045 0.3797000050544739 0.9251000285148621 0.02669999934732914 0.12210000306367874 0.9922000169754028
          -0.7197999954223633 -0.37139999866485596 -0.5864999890327454 -0.13670000433921814 -0.4643999934196472 -0.875
          -0.1573999971151352 -0.12759999930858612 -0.9793000221252441 0.1185000017285347 -0.31439998745918274 0.9419000148773193
          -0.4731999933719635 0.15289999544620514 0.8676000237464905 0.5292999744415283 0.32010000944137573 0.7857000231742859
          -0.8413000106811523 -0.06800000369548798 0.536300003528595 -0.8726999759674072 0.13099999725818634 0.47040000557899475
          -0.9685999751091003 -0.1574999988079071 -0.19220000505447388 0.9372000098228455 0.16509999334812164 0.30730000138282776
          0.9810000061988831 0.1940000057220459 0.008500000461935997 0.9469000101089478 0.19589999318122864 -0.2549999952316284
          0.9412999749183655 -0.24639999866485596 -0.2304999977350235 0.963100016117096 -0.010900000110268593 -0.26899999380111694
          0.9824000000953674 0.17730000615119934 0.059300001710653305 0.6808000206947327 -0.08150000125169754 0.7279000282287598
          0.5238000154495239 0.34200000762939453 0.7802000045776367 0.26980000734329224 0.1517000049352646 0.9509000182151794
          -0.29269999265670776 -0.34369999170303345 -0.892300009727478 -0.5787000060081482 -0.30959999561309814 -0.7544999718666077
          -0.5741999745368958 -0.3481000065803528 -0.7409999966621399 -0.19760000705718994 0.0737999975681305 0.9775000214576721
          0.11469999700784683 -0.0640999972820282 0.9912999868392944 0.22509999573230743 0.22859999537467957 0.9472000002861023
          0.8008000254631042 0.24740000069141388 0.5454000234603882 0.8432999849319458 0.3375000059604645 0.41819998621940613
          0.9359999895095825 0.22200000286102295 0.2732999920845032 0.9381999969482422 0.09730000048875809 0.3321000039577484
          0.9132000207901001 0.27469998598098755 -0.3009999990463257 0.9926000237464905 0.09799999743700027 -0.0722000002861023
          -0.2847999930381775 -0.14229999482631683 0.9480000138282776 -0.9031000137329102 -0.08730000257492065 0.4203999936580658
          -0.9836000204086304 0.1370999962091446 0.11670000106096268 -0.7203999757766724 0.13279999792575836 -0.6807000041007996
          -0.035999998450279236 -0.13609999418258667 -0.9900000095367432 0.15309999883174896 0.3531999886035919 -0.9229000210762024
          0.6308000087738037 0.7718999981880188 -0.07919999957084656 0.5795000195503235 0.8145999908447266 0.02290000021457672
          0.6398000121116638 0.7680000066757202 -0.029899999499320984 0.9610000252723694 -0.04879999905824661 -0.27239999175071716
          0.9927999973297119 -0.09969999641180038 -0.06560000032186508 0.8521999716758728 0.18690000474452972 -0.4887999892234802
          -0.011800000444054604 -0.16050000488758087 -0.9869999885559082 -0.06459999829530716 -0.2093999981880188 -0.9757000207901001
          0.06270000338554382 -0.14470000565052032 -0.987500011920929 0.41190001368522644 0.8858000040054321 0.21369999647140503
          -0.07240000367164612 0.4359999895095825 0.8970000147819519 -0.0035000001080334187 0.8909000158309937 -0.45410001277923584
          0.7081999778747559 0.6685000061988831 0.22699999809265137 -0.7843999862670898 0.26989999413490295 0.5583999752998352
          -0.28049999475479126 0.9458000063896179 -0.16339999437332153 -0.7821000218391418 0.02410000003874302 -0.6226999759674072
          -0.3465999960899353 -0.11540000140666962 -0.930899977684021 -0.6085000038146973 -0.0746999979019165 -0.7900999784469604
          -0.5472999811172485 -0.07199999690055847 -0.833899974822998 -0.4814999997615814 -0.27309998869895935 -0.8327999711036682
          -0.34540000557899475 0.16830000281333923 -0.9232000112533569 -0.760200023651123 0.1736000031232834 0.6261000037193298
          -0.7494000196456909 0.006800000090152025 0.6621000170707703 -0.661300003528595 0.04899999871850014 0.7484999895095825
          -0.026399999856948853 0.9993000030517578 -0.025299999862909317 -0.11240000277757645 0.9936000108718872 -0.01489999983459711
          0.012199999764561653 0.9936000108718872 -0.11270000040531158 -0.6401000022888184 -0.14249999821186066 0.7548999786376953
          -0.913100004196167 0.07479999959468842 0.4007999897003174 -0.4072999954223633 0.1695999950170517 0.8974000215530396
          -0.6474000215530396 0.11389999836683273 -0.753600001335144 -0.3898000121116638 -0.03269999846816063 -0.9203000068664551
          -0.8348000049591064 -0.08389999717473984 -0.5440999865531921 0.45570001006126404 0.09989999979734421 -0.8845000267028809
          0.6100999712944031 -0.0003000000142492354 -0.7922999858856201 0.6323999762535095 0.36970001459121704 -0.6807000041007996
          0.7924000024795532 -0.48100000619888306 0.3752000033855438 0.8213000297546387 -0.4779999852180481 0.311599999666214
          0.8579000234603882 -0.3237999975681305 0.39890000224113464 -0.8751000165939331 0.17579999566078186 -0.45089998841285706
          -0.8966000080108643 -0.004800000227987766 -0.44279998540878296 -0.8112000226974487 -0.04729999974370003 -0.5828999876976013
          -0.2547000050544739 -0.1543000042438507 -0.9545999765396118 -0.5462999939918518 -0.2556999921798706 -0.7975999712944031
          -0.8754000067710876 -0.18469999730587006 -0.44679999351501465 0.527999997138977 0.37119999527931213 0.7638000249862671
          0.7226999998092651 0.6284000277519226 0.28780001401901245 -0.3718000054359436 0.6277999877929688 0.6837999820709229
          -0.49410000443458557 0.8691999912261963 0.019700000062584877 -0.635699987411499 0.41429999470710754 0.6513000130653381
          0.20309999585151672 0.06440000236034393 0.9769999980926514 0.19740000367164612 0.025599999353289604 0.9800000190734863
          0.06469999998807907 0.006399999838322401 0.9979000091552734 -0.3815999925136566 0.164000004529953 0.9096999764442444
          -0.23340000212192535 0.16750000417232513 0.9577999711036682 -0.3517000079154968 0.28949999809265137 0.8902000188827515
          -0.8547999858856201 0.5188999772071838 0.004999999888241291 -0.8531000018119812 -0.07270000129938126 0.516700029373169
          -0.9772999882698059 -0.19830000400543213 -0.07530000060796738 -0.802299976348877 -0.4618000090122223 0.3781999945640564
          -0.9513000249862671 -0.22089999914169312 0.21490000188350677 0.384799987077713 0.8804000020027161 0.27720001339912415
          0.692799985408783 0.6330999732017517 -0.3452000021934509 0.7585999965667725 0.5943999886512756 0.2669000029563904
          -0.5131000280380249 0.14259999990463257 -0.8464000225067139 0.38179999589920044 -0.4138999879360199 -0.8263999819755554
          0.32170000672340393 0.3319999873638153 -0.8866999745368958 0.07129999995231628 -0.24220000207424164 -0.9675999879837036
          0.36809998750686646 -0.20509999990463257 -0.9068999886512756 -0.13619999587535858 0.08349999785423279 -0.9872000217437744
          0.37770000100135803 -0.21930000185966492 0.8996000289916992 -0.012500000186264515 0.3165999948978424 0.9484999775886536
          0.2930999994277954 0.050599999725818634 0.9546999931335449 -0.6118999719619751 -0.11559999734163284 -0.7824000120162964
          -0.49399998784065247 -0.534600019454956 -0.685699999332428 -0.13910000026226044 -0.13189999759197235 -0.9815000295639038
          -0.8762999773025513 0.39989998936653137 -0.2687000036239624 -0.8925999999046326 0.39430001378059387 -0.21870000660419464
          -0.8860999941825867 0.4410000145435333 -0.14309999346733093 0.8824999928474426 0.4165000021457672 0.21850000321865082
          0.9009000062942505 0.20990000665187836 0.3799000084400177 0.8912000060081482 0.4372999966144562 0.12049999833106995
          0.5044000148773193 -0.5144000053405762 -0.6934999823570251 0.7087000012397766 -0.5809000134468079 -0.4004000127315521
          0.7954000234603882 -0.30469998717308044 -0.5238000154495239 0.4851999878883362 -0.8579000234603882 -0.16910000145435333
          -0.16859999299049377 -0.9580000042915344 -0.2320999950170517 -0.28690001368522644 -0.8389999866485596 0.46239998936653137
          -0.9944000244140625 0.01080000028014183 0.10540000349283218 -0.980400025844574 0.1826000064611435 -0.07429999858140945
          -0.9506999850273132 0.21299999952316284 -0.22550000250339508 -0.5666999816894531 -0.48969998955726624 0.6625999808311462
          -0.4025999903678894 -0.05400000140070915 0.9138000011444092 -0.18379999697208405 -0.11840000003576279 0.9757999777793884
          0.6134999990463257 0.7196999788284302 -0.32510000467300415 0.20810000598430634 0.9699000120162964 0.1265999972820282
          0.6080999970436096 0.34439998865127563 -0.7152000069618225 0.503600001335144 0.04259999841451645 0.8629000186920166
          0.18150000274181366 0.4325000047683716 0.8831999897956848 0.7645000219345093 0.006000000052154064 0.644599974155426
          -0.7771999835968018 0.5943999886512756 -0.20659999549388885 -0.9502999782562256 0.19329999387264252 0.24410000443458557
          -0.9765999913215637 -0.17579999566078186 -0.12380000203847885 -0.6420000195503235 -0.010700000450015068 -0.766700029373169
          -0.6643999814987183 0.08410000056028366 -0.7426999807357788 -0.593500018119812 0.025200000032782555 -0.8044000267982483
          0.052000001072883606 0.42480000853538513 -0.9038000106811523 0.02370000071823597 0.3346000015735626 -0.9420999884605408
          0.326200008392334 0.44369998574256897 -0.8346999883651733 0.7235000133514404 0.41830000281333923 0.5490999817848206
          0.8379999995231628 0.2500999867916107 0.48500001430511475 -0.22349999845027924 -0.6678000092506409 -0.7099999785423279
          0.2720000147819519 -0.4864000082015991 -0.830299973487854 -0.3237000107765198 -0.3580999970436096 -0.8758000135421753
          0.43630000948905945 -0.1981000006198883 -0.8776999711990356 0.5078999996185303 -0.1363999992609024 -0.8504999876022339
          0.3569999933242798 -0.2574999928474426 -0.8978999853134155 0.3131999969482422 0.1859000027179718 -0.9312999844551086
          0.3646000027656555 0.296099990606308 -0.8827999830245972 0.17739999294281006 0.23579999804496765 -0.9555000066757202
          0.8223000168800354 0.14659999310970306 -0.5497999787330627 0.6872000098228455 -0.5299999713897705 -0.4968000054359436
          0.9190999865531921 -0.32749998569488525 -0.21879999339580536 0.24799999594688416 0.9667999744415283 0.06069999933242798
          0.33070001006126404 0.9160000085830688 0.2273000031709671 0.5026999711990356 0.8252999782562256 0.2572000026702881
          -0.5676000118255615 0.3919000029563904 -0.7240999937057495 -0.9628999829292297 -0.00800000037997961 -0.26980000734329224
          -0.20190000534057617 0.7663000226020813 0.6100000143051147 -0.25049999356269836 0.6654000282287598 0.7031999826431274
          -0.06469999998807907 0.664900004863739 0.7440999746322632 0.946399986743927 -0.022700000554323196 -0.3222000002861023
          0.7210000157356262 -0.12139999866485596 -0.682200014591217 0.8245000243186951 -0.41359999775886536 -0.3862000107765198
          0.43720000982284546 0.34139999747276306 0.832099974155426 0.8565999865531921 0.36250001192092896 0.3671000003814697
          0.753000020980835 0.33799999952316284 0.5645999908447266 0.4796999990940094 -0.4397999942302704 0.7592999935150146
          -0.4239000082015991 -0.2734000086784363 0.8633999824523926 0.1518000066280365 0.17090000212192535 0.9735000133514404
          -0.9922000169754028 -0.12449999898672104 -0.001500000013038516 -0.0006000000284984708 0.9994000196456909 -0.03440000116825104
          -0.06120000034570694 0.9970999956130981 -0.04410000145435333 -0.024000000208616257 0.9962000250816345 0.08370000123977661
          0.7249000072479248 0.608299970626831 0.323199987411499 0.5659000277519226 -0.09709999710321426 0.8187000155448914
          0.4381999969482422 0.3725999891757965 0.8180000185966492 0.7321000099182129 0.2257000058889389 0.6427000164985657
          0.4406000077724457 0.07159999758005142 0.8949000239372253 0.36010000109672546 0.5519999861717224 0.7520999908447266
          -0.6284999847412109 -0.26820001006126404 0.7300999760627747 -0.607699990272522 -0.18199999630451202 0.7730000019073486
          0.0272000003606081 -0.47360000014305115 0.880299985408783 0.9510999917984009 -0.2475000023841858 -0.18490000069141388
          0.9150999784469604 -0.3375000059604645 0.2206999957561493 0.9908000230789185 0.10040000081062317 0.09019999951124191
          0.775600016117096 -0.03759999945759773 0.6301000118255615 0.024700000882148743 -0.4641000032424927 0.8853999972343445
          0.48069998621940613 -0.17679999768733978 0.8589000105857849 -0.9042999744415283 -0.31520000100135803 -0.28790000081062317
          -0.8381999731063843 -0.04019999876618385 -0.5439000129699707 -0.957099974155426 -0.08860000222921371 -0.2761000096797943
          -0.2206999957561493 0.3479999899864197 0.9110999703407288 0.1738000065088272 0.9732999801635742 -0.14970000088214874
          0.7084000110626221 0.5882999897003174 0.38989999890327454 -0.9685999751091003 0.031599998474121094 0.2467000037431717
          -0.9781000018119812 -0.06800000369548798 0.19660000503063202 -0.9125000238418579 -0.052400000393390656 0.4056999981403351
          -0.9054999947547913 -0.398499995470047 0.14589999616146088 -0.9146000146865845 -0.3472999930381775 0.2069000005722046
          -0.8944000005722046 -0.3846000134944916 0.2282000035047531 0.36410000920295715 -0.6353999972343445 0.6809999942779541
          0.4505000114440918 -0.8233000040054321 0.3452000021934509 0.17569999396800995 -0.7773000001907349 0.6040999889373779
          -0.03819999843835831 0.9832000136375427 -0.1784999966621399 -0.193900004029274 0.34769999980926514 -0.9172999858856201
          -0.20679999887943268 -0.3140999972820282 -0.9265999794006348 -0.009600000455975533 -0.5447999835014343 0.8385000228881836
          0.19629999995231628 -0.2897999882698059 0.9366999864578247 0.40869998931884766 -0.337799996137619 0.8478000164031982
          0.9417999982833862 0.10719999670982361 0.31869998574256897 0.9246000051498413 0.11599999666213989 0.3628999888896942
          0.9330000281333923 0.13680000603199005 0.3328000009059906 0.09520000219345093 0.12030000239610672 0.9882000088691711
          -0.02070000022649765 0.07680000364780426 0.9968000054359436 -0.916700005531311 -0.14669999480247498 0.3716999888420105
          -0.9585000276565552 0.05139999836683273 0.28029999136924744 -0.8701000213623047 -0.008700000122189522 0.4927000105381012
          -0.6093000173568726 0.19709999859333038 -0.7681000232696533 -0.9056000113487244 0.2563999891281128 -0.337799996137619
          -0.7418000102043152 0.22200000286102295 -0.6327999830245972 -0.4431000053882599 0.05979999899864197 0.8945000171661377
          0.23489999771118164 0.38999998569488525 0.8903999924659729 0.44839999079704285 0.2619999945163727 0.8546000123023987
          -0.6549999713897705 0.5422000288963318 0.5263000130653381 -0.6503000259399414 0.23659999668598175 0.7218999862670898
          -0.34950000047683716 0.24040000140666962 0.9056000113487244 0.5238999724388123 -0.03970000147819519 -0.8508999943733215
          0.6460999846458435 -0.025299999862909317 -0.7627999782562256 0.4575999975204468 -0.0786999985575676 -0.885699987411499
          -0.9132000207901001 -0.3292999863624573 0.23999999463558197 -0.968500018119812 0.032499998807907104 0.2467000037431717
          -0.9581999778747559 -0.26589998602867126 0.10530000180006027 0.5157999992370605 0.33070001006126404 0.7903000116348267
          0.7149999737739563 0.39969998598098755 0.5735999941825867 0.5715000033378601 0.36970001459121704 0.7325999736785889
          -0.7809000015258789 -0.5307999849319458 0.3292999863624573 -0.7350999712944031 0.22059999406337738 0.640999972820282
          0.012600000016391277 0.24150000512599945 0.970300018787384 -0.9235000014305115 0.019700000062584877 0.382999986410141
          0.28119999170303345 -0.8654999732971191 0.41449999809265137 -0.7379000186920166 -0.6725000143051147 0.0575999990105629
          -0.07360000163316727 -0.49570000171661377 -0.8654000163078308 0.42419999837875366 -0.24300000071525574 -0.8723999857902527
          -0.2856999933719635 -0.3449999988079071 -0.89410001039505 -0.531000018119812 -0.4878999888896942 0.692799985408783
          -0.36070001125335693 -0.1680999994277954 0.9174000024795532 0.258899986743927 -0.16359999775886536 0.9519000053405762
          -0.9294999837875366 0.3257000148296356 0.17319999635219574 -0.8553000092506409 0.5181000232696533 0.006399999838322401
          -0.8511999845504761 0.37450000643730164 0.3677000105381012 -0.32269999384880066 0.733299970626831 0.5983999967575073
          -0.04769999906420708 0.8438000082969666 0.534600019454956 -0.4336000084877014 0.6230000257492065 0.6510000228881836
          -0.5903000235557556 -0.7807999849319458 -0.20499999821186066 -0.4586000144481659 -0.11980000138282776 -0.8805000185966492
          -0.9868000149726868 -0.11180000007152557 -0.11699999868869781 0.7777000069618225 -0.3343999981880188 -0.5324000120162964
          0.5210000276565552 -0.10220000147819519 -0.8474000096321106 0.9211999773979187 0.012000000104308128 -0.3889000117778778
          0.4546999931335449 -0.4921000003814697 0.7422999739646912 -0.14470000565052032 -0.382999986410141 0.9122999906539917
          0.5016000270843506 -0.20010000467300415 0.8416000008583069 0.9868999719619751 0.08250000327825546 0.13860000669956207
          0.9970999956130981 -0.03669999912381172 0.06599999964237213 0.8695999979972839 -0.4893999993801117 0.06509999930858612
          -0.5332000255584717 0.0632999986410141 0.8435999751091003 -0.6071000099182129 0.15919999778270721 0.7785999774932861
          0.2653999924659729 -0.0754999965429306 0.9611999988555908 -0.22589999437332153 -0.17069999873638153 -0.9591000080108643
          -0.13650000095367432 -0.3986000120639801 -0.9068999886512756 -0.26350000500679016 -0.23559999465942383 -0.9355000257492065
          0.4316999912261963 0.8847000002861023 0.17589999735355377 -0.2842000126838684 0.9577000141143799 0.04500000178813934
          0.24279999732971191 0.7020000219345093 -0.6694999933242798 -0.7515000104904175 0.09920000284910202 -0.6521999835968018
          -0.8270000219345093 0.3197000026702881 -0.46239998936653137 -0.853600025177002 -0.09359999746084213 -0.5123999714851379
          0.9380000233650208 -0.25780001282691956 0.23190000653266907 0.9038000106811523 0.41260001063346863 0.11389999836683273
          0.8489000201225281 -0.17489999532699585 -0.49869999289512634 0.7325000166893005 0.36559998989105225 0.5742999911308289
          0.9309999942779541 -0.04619999974966049 0.3619999885559082 0.6597999930381775 0.3828999996185303 0.6464999914169312
          0.8420000076293945 0.2526000142097473 0.4765999913215637 0.8288999795913696 0.14980000257492065 0.5389999747276306
          0.8988999724388123 0.12389999628067017 0.420199990272522 0.9275000095367432 0.16249999403953552 -0.3366999924182892
          0.8848999738693237 0.25380000472068787 -0.390500009059906 0.9620000123977661 0.22020000219345093 -0.16140000522136688
          0.9203000068664551 -0.15369999408721924 -0.3596999943256378 0.7590000033378601 -0.508899986743927 -0.40619999170303345
          0.7337999939918518 -0.6729999780654907 -0.09269999712705612 0.429500013589859 -0.3296999931335449 -0.8406999707221985
          0.37720000743865967 -0.414900004863739 -0.828000009059906 0.3628000020980835 -0.3865000009536743 -0.8478999733924866
          -0.9995999932289124 0.02889999933540821 0.0012000000569969416 -0.9395999908447266 0.014399999752640724 -0.3418000042438507
          -0.949400007724762 -0.13459999859333038 0.28369998931884766 0.43689998984336853 0.19169999659061432 0.8787999749183655
          0.9121999740600586 -0.2085999995470047 0.35260000824928284 0.23280000686645508 -0.3560999929904938 0.9049999713897705
          -0.8399999737739563 -0.04740000143647194 0.5404999852180481 -0.8586999773979187 0.24300000071525574 0.4512999951839447
          -0.8610000014305115 -0.09939999878406525 0.49880000948905945 -0.18400000035762787 0.3977999985218048 -0.8988000154495239
          0.08839999884366989 -0.1501999944448471 -0.9847000241279602 0.5608000159263611 0.25270000100135803 -0.7885000109672546
          0.30239999294281006 0.8256999850273132 0.47620001435279846 0.5800999999046326 0.7684000134468079 0.2703000009059906
          0.794700026512146 0.5734999775886536 0.19869999587535858 0.6204000115394592 0.35350000858306885 -0.7001000046730042
          0.7526999711990356 0.3441999852657318 -0.5612000226974487 0.6647999882698059 0.5590000152587891 -0.49549999833106995
          0.508400022983551 -0.3497999906539917 -0.786899983882904 0.27250000834465027 -0.41760000586509705 -0.8668000102043152