<?xml version="1.0"?>
<VTKFile type="PolyData" version="0.1" byte_order="LittleEndian" header_type="UInt32" compressor="vtkZLibDataCompressor">
  <PolyData>
    <FieldData>
      <Array type="String" Name="MaterialNames" NumberOfTuples="1" format="ascii">
        109 97 116 101 114 105 97 108 95 48 0
      </Array>
      <Array type="String" Name="MaterialLibraries" NumberOfTuples="1" format="ascii">
        109 97 116 101 114 105 97 108 46 109 116 108 0
      </Array>
    </FieldData>
    <Piece NumberOfPoints="629" NumberOfVerts="0" NumberOfLines="0" NumberOfStrips="0" NumberOfPolys="1184">
      <PointData Normals="Normals">
        <DataArray type="Float32" Name="Normals" NumberOfComponents="3" format="ascii" RangeMin="0.9999316758399998" RangeMax="1.0000685553318203">
          -0.38100001215934753 -0.17630000412464142 -0.9075999855995178 -0.1404000073671341 0.44760000705718994 -0.8830999732017517
          -0.20720000565052032 -0.5145999789237976 -0.8320000171661377 -0.9038000106811523 0.19290000200271606 -0.38199999928474426
          -0.7315999865531921 -0.6018000245094299 -0.32030001282691956 -0.7185999751091003 0.45210000872612 -0.5284000039100647
          -0.6783999800682068 0.3953000009059906 -0.6193000078201294 -0.794700026512146 0.4293999969959259 -0.42899999022483826
          -0.7501999735832214 0.2151000052690506 -0.6251999735832214 -0.598800003528595 0.18529999256134033 -0.77920001745224
          -0.8105000257492065 0.4237000048160553 -0.40450000762939453 -0.6236000061035156 0.41339999437332153 -0.6635000109672546
          -0.9193000197410583 0.2851000130176544 -0.27140000462532043 -0.6686000227928162 0.05249999836087227 -0.7418000102043152
          -0.4562999904155731 -0.02290000021457672 -0.8895000219345093 -0.9761000275611877 -0.09730000048875809 -0.19439999759197235
          -0.8822000026702881 -0.06909999996423721 -0.4657999873161316 -0.8442000150680542 -0.20800000429153442 -0.49410000443458557
          -0.8234000205993652 -0.4375999867916107 -0.3612000048160553 -0.9265999794006348 0.045899998396635056 -0.373199999332428
          -0.9103000164031982 0.10209999978542328 -0.40119999647140503 -0.9074000120162964 0.07209999859333038 -0.414000004529953
          -0.8955000042915344 0.24289999902248383 -0.37290000915527344 -0.9277999997138977 0.13819999992847443 -0.3463999927043915
          -0.9605000019073486 0.0027000000700354576 -0.27810001373291016 -0.958299994468689 -0.038100000470876694 -0.2833000123500824
          -0.9803000092506409 -0.17900000512599945 -0.08309999853372574 0.9060999751091003 -0.3765999972820282 0.19269999861717224
          0.9088000059127808 -0.3009999990463257 0.2888999879360199 0.5759000182151794 -0.7994999885559082 0.17090000212192535
          -0.753000020980835 0.4767000079154968 -0.4535999894142151 -0.8628000020980835 0.4000999927520752 -0.3089999854564667
          -0.8809000253677368 0.37389999628067017 -0.29019999504089355 0.9398999810218811 0.09839999675750732 0.3269999921321869
          0.9433000087738037 0.21400000154972076 0.25369998812675476 -0.9004999995231628 0.34860000014305115 -0.25999999046325684
          -0.949999988079071 0.20010000467300415 -0.23970000445842743 0.8677999973297119 0.3862000107765198 0.3125999867916107
          0.8113999962806702 0.5184000134468079 0.2702000141143799 -0.9729999899864197 0.0013000000035390258 -0.23070000112056732
          -0.8508999943733215 -0.2806999981403351 -0.4440000057220459 -0.9280999898910522 -0.16339999437332153 -0.3343999981880188
          -0.9083999991416931 -0.1152999997138977 -0.4018999934196472 -0.8795999884605408 -0.2151000052690506 -0.4242999851703644
          -0.9642000198364258 -0.20550000667572021 -0.1673000007867813 -0.9491999745368958 -0.2037999927997589 0.23989999294281006
          -0.9886999726295471 -0.149399995803833 -0.012299999594688416 -0.9984999895095825 -0.031599998474121094 -0.04529999941587448
          0.04899999871850014 -0.910099983215332 0.4113999903202057 -0.6172999739646912 -0.7067999839782715 0.3456000089645386
          -0.1526000052690506 -0.9613999724388123 0.2290000021457672 0.4652999937534332 -0.8774999976158142 0.11620000004768372
          -0.9207000136375427 0.3749000132083893 -0.10859999805688858 -0.8784999847412109 0.4194999933242798 -0.22840000689029694
          0.1436000019311905 -0.9290000200271606 0.34119999408721924 0.5972999930381775 -0.7858999967575073 0.16009999811649323
          0.8822000026702881 -0.4456000030040741 0.1518000066280365 -0.8842999935150146 0.3513999879360199 -0.3073999881744385
          0.958899974822998 0.07660000026226044 0.27320000529289246 -0.9171000123023987 0.15039999783039093 -0.36910000443458557
          0.9132999777793884 0.39329999685287476 0.10620000213384628 0.769599974155426 0.5659000277519226 0.29589998722076416
          -0.9496999979019165 -0.0010999999940395355 -0.31310001015663147 0.7649999856948853 0.38679999113082886 0.5149999856948853
          -0.9415000081062317 -0.051899999380111694 -0.33309999108314514 -0.8984000086784363 -0.24240000545978546 -0.3662000000476837
          -0.9046000242233276 -0.19619999825954437 -0.3783000111579895 0.7692999839782715 -0.5138999819755554 0.37950000166893005
          0.63919997215271 -0.5842999815940857 0.4999000132083893 0.7376000285148621 -0.49639999866485596 0.4577000141143799
          0.6931999921798706 -0.6751999855041504 0.25189998745918274 0.8080999851226807 -0.5737000107765198 0.13349999487400055
          -0.8267999887466431 -0.5188000202178955 -0.21729999780654907 -0.8296999931335449 -0.3400999903678894 -0.44269999861717224
          -0.09160000085830688 -0.9954000115394592 -0.02969999983906746 -0.2867000102996826 -0.24609999358654022 0.9258999824523926
          -0.6146000027656555 -0.5508000254631042 -0.5645999908447266 -0.5821999907493591 0.810699999332428 0.06109999865293503
          -0.9264000058174133 0.31929999589920044 -0.1995999962091446 -0.6705999970436096 -0.6948000192642212 0.25999999046325684
          -0.06040000170469284 -0.9911999702453613 0.11810000240802765 0.49070000648498535 -0.8655999898910522 0.10010000318288803
          -0.8140000104904175 0.5593000054359436 -0.15680000185966492 -0.781499981880188 0.5625 -0.26989999413490295
          -0.8382999897003174 -0.4311999976634979 0.3336000144481659 -0.8539999723434448 -0.41519999504089355 0.31349998712539673
          -0.8162999749183655 -0.48240000009536743 0.31779998540878296 0.6340000033378601 -0.7585999965667725 0.1501999944448471
          0.7901999950408936 -0.5224999785423279 0.32030001282691956 -0.7820000052452087 0.51419997215271 -0.3522000014781952
          -0.8302000164985657 0.36340001225471497 -0.4226999878883362 0.8944000005722046 -0.2076999992132187 0.3962000012397766
          0.8264999985694885 0.5547000169754028 0.09589999914169312 0.9194999933242798 0.3765000104904175 0.11339999735355377
          -0.7062000036239624 0.19300000369548798 -0.6812999844551086 0.4359999895095825 -0.03660000115633011 -0.8992000222206116
          0.17219999432563782 0.8909000158309937 -0.420199990272522 -0.37880000472068787 0.7832000255584717 -0.49309998750686646
          -0.2037999927997589 0.9761999845504761 -0.07400000095367432 0.5195000171661377 0.8203999996185303 -0.23890000581741333
          -0.9232000112533569 0.014100000262260437 -0.3840000033378601 -0.1598999947309494 -0.9038000106811523 -0.3971000015735626
          -0.8889999985694885 -0.4544000029563904 -0.05689999833703041 0.7767999768257141 -0.6248999834060669 0.0778999999165535
          0.8431000113487244 -0.1242000013589859 0.5232999920845032 -0.9251999855041504 -0.060600001364946365 -0.37459999322891235
          0.5681999921798706 -0.7986000180244446 0.19850000739097595 0.5016999840736389 -0.6754000186920166 0.5404999852180481
          0.3937000036239624 -0.9164000153541565 0.07169999927282333 0.7258999943733215 -0.6402999758720398 0.25110000371932983
          -0.9002000093460083 -0.16429999470710754 -0.4032000005245209 0.9390000104904175 -0.19339999556541443 0.2842999994754791
          -0.8592000007629395 -0.2615000009536743 -0.4397999942302704 0.2890999913215637 0.1923000067472458 -0.9377999901771545
          0.9908000230789185 -0.012000000104308128 -0.13510000705718994 -0.4702000021934509 -0.4729999899864197 -0.7451000213623047
          -0.7720000147819519 -0.3409999907016754 -0.5364000201225281 0.8657000064849854 0.49559998512268066 -0.07000000029802322
          0.4535999894142151 0.882099986076355 -0.12729999423027039 -0.7872999906539917 -0.19580000638961792 -0.5845999717712402
          -0.9247999787330627 -0.2721000015735626 -0.2660999894142151 -0.9549999833106995 -0.09529999643564224 -0.2806999981403351
          -0.9509000182151794 -0.3046000003814697 -0.05559999868273735 -0.39329999685287476 0.8769999742507935 -0.2761000096797943
          -0.39649999141693115 0.8770999908447266 -0.2712000012397766 -0.45719999074935913 0.8687999844551086 -0.19009999930858612
          -0.5950000286102295 0.7644000053405762 -0.2483000010251999 -0.760699987411499 0.6326000094413757 -0.14579999446868896
          -0.704800009727478 0.6496000289916992 -0.2849999964237213 -0.6134999990463257 -0.7644000053405762 0.19830000400543213
          -0.7717999815940857 -0.6031000018119812 0.2012999951839447 -0.4309999942779541 -0.8913999795913696 0.1404000073671341
          0.12389999628067017 -0.9850999712944031 0.11890000104904175 0.4607999920845032 -0.8489999771118164 0.25839999318122864
          -0.6751000285148621 0.6499999761581421 -0.34880000352859497 -0.7039999961853027 0.6008999943733215 -0.37860000133514404
          -0.7045999765396118 0.5964000225067139 -0.38440001010894775 -0.789900004863739 -0.5414000153541565 0.2879999876022339
          0.48969998955726624 -0.8343999981880188 0.25279998779296875 0.5164999961853027 -0.7120000123977661 0.4756999909877777
          0.7684999704360962 -0.49939998984336853 0.4000000059604645 0.8709999918937683 -0.07119999825954437 0.4860999882221222
          -0.8583999872207642 0.25859999656677246 -0.4431000053882599 -0.7843000292778015 0.4494999945163727 -0.427700012922287
          -0.8672999739646912 0.34470000863075256 -0.35899999737739563 0.4239000082015991 0.8356999754905701 -0.3492000102996826
          0.42890000343322754 0.8605999946594238 0.2745000123977661 0.3319999873638153 0.8870000243186951 0.3208000063896179
          0.6348999738693237 0.7311999797821045 0.24950000643730164 0.59579998254776 0.7391999959945679 -0.3140000104904175
          -0.902999997138977 0.08389999717473984 -0.4214000105857849 -0.9240000247955322 0.13030000030994415 -0.359499990940094
          0.07569999992847443 0.9801999926567078 0.18299999833106995 0.007300000172108412 0.9487000107765198 0.3160000145435333
          -0.9092000126838684 -0.010099999606609344 -0.41620001196861267 -0.9376000165939331 0.0142000000923872 -0.3474000096321106
          -0.722100019454956 -0.6481999754905701 0.24169999361038208 0.2070000022649765 -0.9333999752998352 0.2930999994277954
          0.7627999782562256 -0.5996999740600586 0.24199999868869781 -0.9081000089645386 -0.07320000231266022 -0.4122999906539917
          -0.9361000061035156 -0.04839999973773956 -0.34850001335144043 0.5708000063896179 -0.8144000172615051 0.1046999990940094
          0.4334000051021576 -0.8867999911308289 0.16030000150203705 0.7286999821662903 -0.5685999989509583 0.3817000091075897
          -0.8991000056266785 -0.1703999936580658 -0.4032000005245209 -0.9298999905586243 -0.13510000705718994 -0.34220001101493835
          -0.885699987411499 -0.2240000069141388 -0.4066999852657318 0.9653000235557556 0.09939999878406525 0.24160000681877136
          -0.8468000292778015 -0.302700012922287 -0.4372999966144562 0.8001999855041504 0.29989999532699585 0.5192999839782715
          -0.7989000082015991 -0.4812000095844269 -0.36079999804496765 -0.8008000254631042 -0.3813000023365021 -0.461899995803833
          -0.5932999849319458 -0.7950999736785889 0.12540000677108765 -0.6567000150680542 -0.6843000054359436 -0.31690001487731934
          -0.33340001106262207 0.9165999889373779 -0.22059999406337738 -0.6888999938964844 0.6424999833106995 -0.33559998869895935
          -0.6536999940872192 0.6998999714851379 -0.28780001401901245 -0.7031999826431274 0.66839998960495 -0.2425999939441681
          -0.7502999901771545 -0.6430000066757202 0.15360000729560852 -0.396699994802475 -0.8959000110626221 0.1996999979019165
          0.05040000006556511 -0.987500011920929 0.1492999941110611 0.20360000431537628 -0.9466000199317932 0.2500999867916107
          0.3061999976634979 -0.8539000153541565 0.4207000136375427 0.21570000052452087 -0.907800018787384 0.3598000109195709
          0.26600000262260437 -0.8159000277519226 0.5134000182151794 0.4059000015258789 -0.7745000123977661 0.4851999878883362
          -0.782800018787384 0.5339000225067139 -0.319599986076355 -0.7260000109672546 0.6362000107765198 -0.2612000107765198
          -0.8327999711036682 0.5145000219345093 -0.20440000295639038 -0.7092999815940857 -0.6503000259399414 0.27219998836517334
          -0.7357000112533569 -0.677299976348877 -0.0035000001080334187 0.6513000130653381 -0.492900013923645 0.5769000053405762
          0.7465999722480774 -0.0203000009059906 0.6650000214576721 0.9056000113487244 -0.21930000185966492 0.3630000054836273
          -0.9412000179290771 0.2824999988079071 -0.18549999594688416 0.3799000084400177 0.4284000098705292 0.8198000192642212
          0.4375 0.5837000012397766 0.6840000152587891 0.5515999794006348 0.45739999413490295 0.6974999904632568
          0.9110000133514404 0.2957000136375427 0.2874000072479248 -0.9807999730110168 0.08900000154972076 -0.1737000048160553
          -0.2305999994277954 0.7771000266075134 0.5856000185012817 -0.11990000307559967 0.9071999788284302 0.4032000005245209
          0.03440000116825104 -0.09279999881982803 0.9951000213623047 -0.6189000010490417 0.23800000548362732 0.7484999895095825
          0.8367000222206116 0.1867000013589859 0.5148000121116638 0.5716999769210815 0.7343000173568726 0.3659000098705292
          0.6269000172615051 0.7591999769210815 0.17499999701976776 -0.9836000204086304 0.005200000014156103 -0.18060000240802765
          -0.7540000081062317 -0.3287999927997589 0.5687000155448914 -0.7235000133514404 0.00989999994635582 0.6902999877929688
          0.8784999847412109 -0.38370001316070557 0.28450000286102295 -0.9789000153541565 -0.04960000142455101 -0.19830000400543213
          0.6297000050544739 -0.7699999809265137 0.10279999673366547 0.23309999704360962 -0.958299994468689 -0.1656000018119812
          0.6682000160217285 -0.7437000274658203 -0.017899999395012856 -0.5073999762535095 -0.8600000143051147 -0.054099999368190765
          0.2599000036716461 -0.7617999911308289 0.5934000015258789 0.8034999966621399 -0.34619998931884766 0.48429998755455017
          0.9038000106811523 -0.18019999563694 0.3882000148296356 -0.9642000198364258 -0.11330000311136246 -0.23980000615119934
          -0.025499999523162842 -0.977400004863739 -0.20999999344348907 0.9391999840736389 -0.06769999861717224 0.3366999924182892
          -0.9488000273704529 -0.13940000534057617 -0.2833000123500824 0.90829998254776 -0.07090000063180923 0.412200003862381
          -0.9415000081062317 -0.18979999423027039 -0.2784999907016754 0.48429998755455017 -0.2029999941587448 0.8511000275611877
          0.8592000007629395 -0.3898000121116638 0.33149999380111694 -0.7925000190734863 -0.42250001430511475 -0.4399000108242035
          -0.8977000117301941 -0.33169999718666077 -0.2897999882698059 0.37880000472068787 0.6237999796867371 0.6836000084877014
          0.1339000016450882 0.39010000228881836 0.9110000133514404 -0.44830000400543213 -0.18359999358654022 0.8748000264167786
          0.07680000364780426 -0.996999979019165 -0.006200000178068876 -0.6804999709129333 -0.6879000067710876 -0.2526000142097473
          0.5393000245094299 0.824400007724762 -0.1720000058412552 0.48579999804496765 0.8539999723434448 -0.18639999628067017
          0.49079999327659607 0.8454999923706055 -0.2102999985218048 0.32120001316070557 0.9287999868392944 -0.1850000023841858
          0.33880001306533813 0.9326000213623047 -0.12439999729394913 -0.0738999992609024 0.9751999974250793 -0.20880000293254852
          0.10689999908208847 0.9725000262260437 -0.2071000039577484 -0.17419999837875366 0.9656000137329102 -0.1932000070810318
          -0.3188000023365021 0.9398999810218811 -0.12269999831914902 -0.5730000138282776 0.8131999969482422 -0.10180000215768814
          -0.6520000100135803 0.7440000176429749 -0.1462000012397766 -0.758400022983551 0.6514000296592712 -0.0215000007301569
          -0.8094000220298767 -0.5770000219345093 0.10930000245571136 -0.37209999561309814 -0.9240000247955322 0.0877000018954277
          0.08720000088214874 -0.9908000230789185 0.1039000004529953 0.0851999968290329 -0.9876000285148621 0.13169999420642853
          0.15880000591278076 -0.9706000089645386 0.18080000579357147 0.438400000333786 -0.8741000294685364 0.20909999310970306
          0.6680999994277954 -0.6425999999046326 0.3752000033855438 0.8495000004768372 -0.5188999772071838 0.09480000287294388
          -0.7886000275611877 0.6119999885559082 -0.06019999831914902 -0.8809999823570251 0.4731000065803528 -0.00430000014603138
          -0.7519999742507935 -0.6431000232696533 -0.1446000039577484 -0.8434000015258789 -0.5324000120162964 -0.07280000299215317
          0.998199999332428 0.01730000041425228 0.05719999969005585 -0.9638000130653381 0.2662000060081482 0.01720000058412552
          -0.7900999784469604 -0.5911999940872192 -0.16189999878406525 0.8671000003814697 0.4968000054359436 0.0348999984562397
          0.9085000157356262 0.38449999690055847 0.1639000028371811 0.722599983215332 0.6689000129699707 0.1745000034570694
          -0.9957000017166138 0.09220000356435776 -0.00430000014603138 -0.40139999985694885 0.6003999710083008 0.6916000247001648
          0.6801000237464905 0.6448000073432922 0.34880000352859497 0.8815000057220459 0.24240000545978546 0.4052000045776367
          0.07680000364780426 -0.8925999999046326 0.4442000091075897 0.14830000698566437 -0.3560999929904938 0.9225999712944031
          -0.6761000156402588 -0.241799995303154 0.6959999799728394 0.9254000186920166 -0.33230000734329224 0.18240000307559967
          -0.9986000061035156 0.031300000846385956 -0.04309999942779541 0.8357999920845032 -0.26100000739097595 0.4830999970436096
          0.7315000295639038 -0.603600025177002 0.31700000166893005 0.8169999718666077 -0.34299999475479126 0.4634999930858612
          0.1014999970793724 -0.4027000069618225 0.9096999764442444 -0.8971999883651733 -0.2694000005722046 0.3499000072479248
          0.9796000123023987 -0.017100000753998756 0.20000000298023224 -0.9962000250816345 -0.011699999682605267 -0.08669999986886978
          0.8550999760627747 -0.5180000066757202 0.020099999383091927 -0.882099986076355 -0.4706999957561493 -0.01979999989271164
          0.9929999709129333 -0.06589999794960022 0.09799999743700027 -0.9908000230789185 -0.06750000268220901 -0.11760000139474869
          -0.012000000104308128 -0.9908000230789185 -0.13500000536441803 0.9753999710083008 -0.11739999800920486 0.1868000030517578
          -0.9842000007629395 -0.1454000025987625 -0.1006999984383583 0.9884999990463257 -0.08219999819993973 0.1266999989748001
          -0.9731000065803528 -0.21199999749660492 -0.09030000120401382 0.968500018119812 -0.24889999628067017 -0.009800000116229057
          -0.8985999822616577 -0.4327999949455261 -0.07209999859333038 0.7343999743461609 -0.6779999732971191 0.03060000017285347
          0.05900000035762787 -0.9977999925613403 0.02879999950528145 -0.5825999975204468 -0.8127999901771545 -0.005200000014156103
          0.013199999928474426 0.975600004196167 -0.219200000166893 0.09309999644756317 0.992900013923645 -0.0738999992609024
          0.2565999925136566 0.9564999938011169 -0.1388999968767166 -0.25110000371932983 0.9539999961853027 -0.1639000028371811
          -0.17329999804496765 0.9847999811172485 -0.008299999870359898 -0.3244999945163727 0.9449999928474426 0.04050000011920929
          0.4180000126361847 0.8960000276565552 -0.14970000088214874 0.5098000168800354 0.8324000239372253 -0.21739999949932098
          0.33469998836517334 0.9369000196456909 -0.10100000351667404 -0.37049999833106995 0.928600013256073 0.021900000050663948
          -0.4781999886035919 0.8780999779701233 0.014100000262260437 -0.6097999811172485 0.7856000065803528 0.10499999672174454
          -0.6840000152587891 0.7261999845504761 0.06930000334978104 -0.774399995803833 0.616100013256073 0.14380000531673431
          -0.8712000250816345 -0.4909000098705292 -0.0005000000237487257 -0.3785000145435333 -0.917900025844574 -0.11940000206232071
          0.0738999992609024 -0.9944000244140625 -0.07509999722242355 0.0544000007212162 -0.9965999722480774 -0.061400000005960464
          0.1316000074148178 -0.9908000230789185 -0.030500000342726707 0.5126000046730042 -0.8579000234603882 -0.0364999994635582
          0.9078999757766724 -0.4088999927043915 -0.09200000017881393 -0.8658999800682068 0.4797999858856201 0.14149999618530273
          -0.9031000137329102 -0.3774999976158142 -0.2045000046491623 0.9915000200271606 -0.08269999921321869 -0.10029999911785126
          -0.9495999813079834 0.2768999934196472 0.1468999981880188 -0.6976000070571899 -0.6485000252723694 -0.304500013589859
          0.6496000289916992 0.09610000252723694 0.7541999816894531 0.9610000252723694 -0.2379000037908554 0.14110000431537628
          -0.9833999872207642 0.1454000025987625 0.10859999805688858 0.6696000099182129 0.14820000529289246 0.7278000116348267
          -0.17139999568462372 0.15649999678134918 0.9726999998092651 0.6212999820709229 -0.7282999753952026 0.2888999879360199
          0.968500018119812 -0.243599995970726 -0.052299998700618744 -0.995199978351593 0.08860000222921371 0.04039999842643738
          0.14640000462532043 0.3986000120639801 0.9053000211715698 0.9071000218391418 0.1973000019788742 0.3718000054359436
          -0.8772000074386597 0.2985999882221222 0.37599998712539673 0.9718000292778015 0.10100000351667404 -0.21289999783039093
          -0.9998000264167786 0.019099999219179153 0.009700000286102295 0.9282000064849854 -0.33719998598098755 0.15729999542236328
          -0.9555000066757202 -0.22709999978542328 -0.18850000202655792 0.9397000074386597 -0.19830000400543213 -0.2786000072956085
          -0.9962999820709229 -0.08309999853372574 0.020400000736117363 0.053599998354911804 -0.9908000230789185 -0.12409999966621399
          0.9896000027656555 -0.08780000358819962 -0.11410000175237656 -0.984499990940094 -0.1687999963760376 0.04740000143647194
          0.9556999802589417 0.02539999969303608 -0.29319998621940613 -0.967199981212616 -0.24199999868869781 0.07769999653100967
          0.8562999963760376 -0.4519999921321869 -0.25 -0.8700000047683716 -0.47510001063346863 0.13169999420642853
          0.17739999294281006 -0.977400004863739 0.11469999700784683 -0.5354999899864197 -0.8165000081062317 0.21580000221729279
          -0.04039999842643738 0.984000027179718 0.17350000143051147 0.25270000100135803 0.9642999768257141 0.07980000227689743
          -0.259799987077713 0.9351999759674072 0.24060000479221344 0.5595999956130981 0.8102999925613403 -0.1738000065088272
          0.5134000182151794 0.857699990272522 0.02630000002682209 0.6348999738693237 0.7724999785423279 -0.010300000198185444
          0.3091000020503998 0.9455999732017517 0.10109999775886536 0.24719999730587006 0.9593999981880188 0.1356000006198883
          -0.3853999972343445 0.9041000008583069 0.18440000712871552 -0.524399995803833 0.8324000239372253 0.17949999868869781
          -0.6653000116348267 0.7060999870300293 0.24240000545978546 -0.7466999888420105 0.6101999878883362 0.2646999955177307
          -0.8565000295639038 -0.4011000096797943 -0.3248000144958496 -0.3124000132083893 -0.7937999963760376 -0.5217999815940857
          0.04859999939799309 -0.8946999907493591 -0.4440999925136566 0.09009999781847 -0.9093999862670898 -0.4059999883174896
          0.17839999496936798 -0.9136999845504761 -0.3650999963283539 0.614300012588501 -0.7416999936103821 -0.26930001378059387
          0.420199990272522 -0.6362000107765198 -0.6470000147819519 -0.8363999724388123 0.49230000376701355 0.2410999983549118
          -0.8741000294685364 -0.16290000081062317 -0.4577000141143799 0.8130999803543091 -0.36090001463890076 -0.45669999718666077
          0.9248999953269958 -0.10189999639987946 -0.36629998683929443 -0.8761000037193298 0.41429999470710754 0.24650000035762787
          -0.9200999736785889 0.32440000772476196 0.21930000185966492 -0.4909000098705292 -0.7487000226974487 -0.4453999996185303
          -0.7610999941825867 -0.632099986076355 -0.14560000598430634 0.0908999964594841 0.10100000351667404 -0.9907000064849854
          0.31520000100135803 0.4618000090122223 -0.8291000127792358 0.5838000178337097 -0.1695999950170517 -0.7940000295639038
          -0.22290000319480896 0.32659998536109924 -0.9185000061988831 0.7390000224113464 -0.45210000872612 -0.49959999322891235
          -0.9607999920845032 0.2150000035762787 0.17520000040531158 -0.41350001096725464 -0.9101999998092651 0.02449999935925007
          -0.07259999960660934 -0.4918000102043152 -0.8676999807357788 0.7875999808311462 -0.5440000295639038 -0.28940001130104065
          0.8992000222206116 -0.04560000076889992 -0.4352000057697296 -0.9829000234603882 0.125 0.13490000367164612
          0.15000000596046448 0.7246999740600586 0.6725999712944031 0.7770000100135803 0.3734000027179718 -0.5069000124931335
          0.6615999937057495 0.2533999979496002 -0.7056999802589417 0.8195000290870667 0.19429999589920044 -0.5392000079154968
          -0.9923999905586243 0.01510000042617321 0.12229999899864197 0.4372999966144562 0.8849999904632568 0.1597999930381775
          0.7986999750137329 0.20589999854564667 0.565500020980835 0.3806999921798706 0.0019000000320374966 -0.9247000217437744
          -0.984499990940094 -0.10760000348091125 0.13830000162124634 0.6906999945640564 -0.6593000292778015 0.296999990940094
          0.6388999819755554 -0.6162999868392944 -0.4603999853134155 0.8754000067710876 -0.08569999784231186 -0.4758000075817108
          -0.9634000062942505 -0.2029999941587448 0.17499999701976776 0.7904999852180481 0.19140000641345978 -0.5817000269889832
          0.7421000003814697 0.27399998903274536 -0.6116999983787537 0.652400016784668 0.12479999661445618 -0.7475000023841858
          -0.9042999744415283 -0.32420000433921814 0.2777000069618225 0.7749999761581421 -0.2590000033378601 -0.5764999985694885
          0.6349999904632568 -0.47110000252723694 -0.6122000217437744 -0.7756999731063843 -0.5170000195503235 0.3619000017642975
          0.3343999981880188 -0.9297000169754028 -0.15440000593662262 -0.21930000185966492 -0.9243000149726868 0.3125
          -0.5895000100135803 -0.6754000186920166 0.4431000053882599 0.04089999943971634 0.9477999806404114 0.3163999915122986
          0.4887999892234802 0.8087000250816345 0.32739999890327454 0.7233999967575073 0.6459000110626221 0.24390000104904175
          0.28119999170303345 0.8920999765396118 0.35370001196861267 0.15549999475479126 0.9189000129699707 0.3625999987125397
          -0.022199999541044235 0.9204000234603882 0.3903999924659729 -0.2176000028848648 0.8772000074386597 0.4278999865055084
          -0.39739999175071716 0.8532000184059143 0.3377000093460083 -0.5687000155448914 0.7746999859809875 0.27649998664855957
          -0.5418000221252441 0.7347999811172485 0.4081999957561493 -0.6495000123977661 0.6517999768257141 0.39169999957084656
          -0.5148000121116638 -0.3587999939918518 -0.7785999774932861 -0.06920000165700912 -0.5483999848365784 -0.8334000110626221
          0.1160999983549118 -0.5809999704360962 -0.8055999875068665 0.16509999334812164 -0.5547000169754028 -0.815500020980835
          -0.6833000183105469 0.5860999822616577 0.43540000915527344 -0.7792999744415283 0.49000000953674316 0.39070001244544983
          -0.6021999716758728 -0.5259000062942505 -0.600600004196167 -0.30730000138282776 -0.5291000008583069 -0.7910000085830688
          0.050999999046325684 -0.43070000410079956 -0.9010000228881836 0.3720000088214874 -0.2094999998807907 -0.9042999744415283
          0.2522999942302704 -0.24779999256134033 -0.9354000091552734 0.21789999306201935 0.03420000150799751 -0.9753999710083008
          0.5410000085830688 -0.14839999377727509 -0.8277999758720398 -0.8273000121116638 0.43630000948905945 0.35370001196861267
          -0.8938000202178955 0.33820000290870667 0.29440000653266907 0.44519999623298645 -0.6827999949455261 0.5792999863624573
          0.07800000160932541 -0.8880000114440918 0.4530999958515167 -0.16369999945163727 -0.7926999926567078 0.5873000025749207
          0.4839000105857849 -0.5960999727249146 0.6407999992370605 0.7860999703407288 -0.40869998931884766 0.4636000096797943
          -0.05050000175833702 -0.8084999918937683 -0.5863999724388123 0.46309998631477356 -0.00430000014603138 -0.8863000273704529
          0.5236999988555908 -0.1160999983549118 -0.8439000248908997 0.26579999923706055 -0.16040000319480896 -0.9506000280380249
          -0.9326000213623047 0.21960000693798065 0.2865000069141388 0.44110000133514404 -0.27480000257492065 -0.8543000221252441
          0.4828999936580658 -0.304500013589859 -0.8209999799728394 0.22949999570846558 -0.4124000072479248 -0.881600022315979
          0.16830000281333923 -0.12160000205039978 -0.9782000184059143 0.5620999932289124 -0.1972000002861023 -0.8032000064849854
          -0.9557999968528748 0.1324000060558319 0.26269999146461487 0.26919999718666077 -0.44359999895095825 -0.8547999858856201
          0.3425999879837036 -0.4799000024795532 -0.8076000213623047 0.2996000051498413 -0.31279999017715454 -0.9013000130653381
          0.4708000123500824 -0.17299999296665192 -0.8651000261306763 -0.9692999720573425 0.027400000020861626 0.24449999630451202