<?xml version="1.0"?>
<VTKFile type="PolyData" version="0.1" byte_order="LittleEndian" header_type="UInt32" compressor="vtkZLibDataCompressor">
  <PolyData>
    <FieldData>
      <Array type="String" Name="MaterialNames" NumberOfTuples="1" format="ascii">
        109 97 116 101 114 105 97 108 95 48 0
      </Array>
      <Array type="String" Name="MaterialLibraries" NumberOfTuples="1" format="ascii">
        109 97 116 101 114 105 97 108 46 109 116 108 0
      </Array>
    </FieldData>
    <Piece NumberOfPoints="1196" NumberOfVerts="0" NumberOfLines="0" NumberOfStrips="0" NumberOfPolys="2358">
      <PointData Normals="Normals">
        <DataArray type="Float32" Name="Normals" NumberOfComponents="3" format="ascii" RangeMin="0.9999026573864411" RangeMax="1.0000616355825795">
          0.321399986743927 0.83160001039505 -0.4528999924659729 -0.02810000069439411 0.9945999979972839 -0.10000000149011612
          0.2223999947309494 0.9563999772071838 -0.18940000236034393 0.48399999737739563 0.7851999998092651 -0.3862000107765198
          0.44209998846054077 0.8968999981880188 0.008799999952316284 0.6349999904632568 0.7694000005722046 -0.06889999657869339
          -0.017500000074505806 0.9922000169754028 0.12370000034570694 0.17190000414848328 0.9650999903678894 0.19740000367164612
          0.4869000017642975 0.8575999736785889 0.1655000001192093 0.040300000458955765 0.9836000204086304 0.17599999904632568
          0.08240000158548355 0.996399998664856 0.01979999989271164 0.1826999932527542 0.9750999808311462 0.12540000677108765
          0.5199000239372253 0.8539999723434448 -0.019300000742077827 0.5317999720573425 0.8317999839782715 0.1590999960899353
          0.2572000026702881 0.9052000045776367 0.33809998631477356 -0.01769999973475933 0.8325999975204468 -0.5534999966621399
          0.20569999516010284 0.7871999740600586 -0.5813999772071838 0.3531999886035919 0.720300018787384 -0.5968999862670898
          0.2863999903202057 0.6563000082969666 -0.6980000138282776 0.3953999876976013 0.6389999985694885 -0.6597999930381775
          -0.21969999372959137 0.8621000051498413 -0.45660001039505005 0.051899999380111694 0.8944000005722046 -0.44429999589920044
          0.5250999927520752 0.6419000029563904 -0.5587000250816345 0.7085999846458435 0.5428000092506409 -0.45080000162124634
          -0.03139999881386757 0.9617000222206116 -0.27219998836517334 0.029600000008940697 0.9635999798774719 -0.265500009059906
          0.6341999769210815 0.7200999855995178 -0.2815000116825104 0.7972999811172485 0.5504000186920166 -0.2476000040769577
          -0.5059000253677368 0.8281000256538391 -0.24130000174045563 -0.15960000455379486 0.9695000052452087 -0.1859000027179718
          0.7827000021934509 0.6164000034332275 -0.08540000021457672 -0.6625999808311462 0.744700014591217 0.07930000126361847
          -0.3312000036239624 0.9277999997138977 0.17170000076293945 -0.08389999717473984 0.9891999959945679 0.11990000307559967
          -0.04780000075697899 0.9933000206947327 0.10459999740123749 0.8623999953269958 0.5015000104904175 -0.06920000165700912
          -0.5019000172615051 0.7699999809265137 0.39399999380111694 0.48339998722076416 0.8754000067710876 0.002099999925121665
          0.675599992275238 0.7343999743461609 -0.06459999829530716 -0.4875999987125397 0.7773000001907349 0.39750000834465027
          -0.28130000829696655 0.9138000011444092 0.2928999960422516 -0.08330000191926956 0.9854999780654907 0.14740000665187836
          0.2515000104904175 0.9656999707221985 0.06480000168085098 0.9833999872207642 -0.18080000579357147 0.011800000444054604
          -0.38339999318122864 0.8561000227928162 0.3465000092983246 0.8037999868392944 0.593999981880188 0.03220000118017197
          0.9650999903678894 0.09600000083446503 -0.24379999935626984 0.9865000247955322 -0.12559999525547028 -0.10509999841451645
          -0.2054000049829483 0.9325000047683716 0.2971000075340271 -0.03909999877214432 0.9754999876022339 0.21649999916553497
          -0.4090000092983246 0.8309999704360962 0.37700000405311584 0.6740000247955322 0.6833000183105469 0.28060001134872437
          0.8256999850273132 0.4821999967098236 0.29280000925064087 0.9785000085830688 -0.1446000039577484 0.14669999480247498
          -0.3734999895095825 0.7529000043869019 0.5418000221252441 -0.20360000431537628 0.8163999915122986 0.5404000282287598
          -0.02759999968111515 0.9077000021934509 0.4187000095844269 0.45660001039505005 0.7512000203132629 0.47679999470710754
          0.9449999928474426 0.16040000319480896 0.2849000096321106 0.027799999341368675 0.8195000290870667 0.5723000168800354
          0.5562000274658203 0.5784000158309937 0.5967000126838684 0.7929999828338623 0.4221000075340271 0.4392000138759613
          -0.16699999570846558 0.7084000110626221 0.685699999332428 0.12610000371932983 0.6937000155448914 0.7091000080108643
          -0.05469999834895134 0.7103000283241272 -0.70169997215271 -0.13230000436306 0.5472999811172485 -0.8263000249862671
          0.060600001364946365 0.4830999970436096 -0.8733999729156494 0.1315000057220459 0.6787999868392944 -0.7224000096321106
          0.1647000014781952 0.48410001397132874 -0.8593999743461609 0.30149999260902405 0.5385000109672546 -0.7868000268936157
          0.4526999890804291 0.6021000146865845 -0.6575999855995178 0.49639999866485596 0.4724000096321106 -0.7282999753952026
          -0.25119999051094055 0.680899977684021 -0.6879000067710876 0.6161999702453613 0.45669999718666077 -0.641700029373169
          -0.35929998755455017 0.7705000042915344 -0.5264999866485596 -0.21369999647140503 0.8158000111579895 -0.5374000072479248
          0.6208999752998352 0.4869999885559082 -0.6141999959945679 0.7616000175476074 0.4578000009059906 -0.4586000144481659
          -0.4894999861717224 0.7797999978065491 -0.3901999890804291 -0.7547000050544739 0.640500009059906 -0.14229999482631683
          0.8931000232696533 0.41350001096725464 -0.1770000010728836 -0.708299994468689 0.6862999796867371 -0.16509999334812164
          -0.8271999955177307 0.5526999831199646 0.10090000182390213 -0.816100001335144 0.5734999775886536 0.07109999656677246
          0.8392000198364258 0.5152000188827515 0.17389999330043793 0.8669000267982483 0.48570001125335693 0.11169999837875366
          -0.8748000264167786 0.4523000121116638 0.17309999465942383 0.7531999945640564 0.23170000314712524 0.6155999898910522
          0.701200008392334 0.5188000202178955 0.48899999260902405 0.7687000036239624 0.5971999764442444 0.2289000004529953
          -0.7907000184059143 0.5238000154495239 0.31679999828338623 0.5676000118255615 -0.6614000201225281 0.490200012922287
          0.6078000068664551 -0.38280001282691956 0.6956999897956848 0.2281000018119812 -0.3034000098705292 0.9251000285148621
          0.23190000653266907 0.4413999915122986 0.8668000102043152 -0.6187000274658203 0.652400016784668 0.4377000033855438
          0.49000000953674316 -0.789900004863739 0.3686999976634979 0.8845000267028809 -0.42179998755455017 0.19910000264644623
          0.7522000074386597 -0.2581999897956848 0.6061999797821045 0.6784999966621399 -0.7261999845504761 -0.1103999987244606
          -0.7529000043869019 0.5126000046730042 0.41269999742507935 -0.47920000553131104 0.7646999955177307 0.43070000410079956
          0.45159998536109924 -0.8913999795913696 -0.03819999843835831 0.5206999778747559 -0.838100016117096 -0.16249999403953552
          0.6601999998092651 -0.6829000115394592 -0.3127000033855438 0.5288000106811523 -0.7174999713897705 -0.45339998602867126
          0.5188000202178955 0.04230000078678131 -0.8537999987602234 0.609000027179718 0.5996000170707703 -0.5192000269889832
          -0.5490999817848206 0.6373999714851379 0.5404999852180481 0.5717999935150146 -0.6531000137329102 -0.4964999854564667
          0.20679999887943268 -0.5853000283241272 -0.7839999794960022 0.2818000018596649 -0.15880000591278076 -0.9462000131607056
          0.9344000220298767 0.3418000042438507 -0.10050000250339508 0.9761999845504761 0.19259999692440033 -0.09939999878406525
          -0.4666999876499176 0.6431000232696533 0.6071000099182129 0.8716999888420105 0.42089998722076416 0.25060001015663147
          -0.45829999446868896 0.6654999852180481 0.5889999866485596 -0.30480000376701355 0.705299973487854 0.6399999856948853
          0.5947999954223633 0.42320001125335693 0.6833999752998352 0.7796000242233276 0.41179999709129333 0.4717999994754791
          0.09009999781847 0.5315999984741211 0.842199981212616 0.3107999861240387 0.42010000348091125 0.8525999784469604
          -0.33469998836517334 0.6919000148773193 0.6396999955177307 -0.17180000245571136 0.6973000168800354 0.695900022983551
          -0.04969999939203262 0.5828999876976013 0.8109999895095825 0.45910000801086426 0.45829999446868896 0.7609999775886536
          0.2903999984264374 0.3659999966621399 -0.8841000199317932 0.12070000171661377 0.24160000681877136 -0.9628000259399414
          0.526199996471405 0.2529999911785126 -0.8119000196456909 -0.1501999944448471 0.33399999141693115 -0.9304999709129333
          0.03700000047683716 0.3262999951839447 -0.9445000290870667 0.5885000228881836 0.31130000948905945 -0.7461000084877014
          -0.29179999232292175 0.39579999446868896 -0.8708000183105469 0.6175000071525574 0.3131999969482422 -0.7214999794960022
          -0.32440000772476196 0.5785999894142151 -0.7483000159263611 -0.5755000114440918 0.4041000008583069 -0.7109000086784363
          0.7229999899864197 0.3610000014305115 -0.5891000032424927 -0.5974000096321106 0.6467999815940857 -0.4740000069141388
          -0.8334000110626221 0.448199987411499 -0.32330000400543213 0.8277000188827515 0.37950000166893005 -0.4131999909877777
          0.8680999875068665 0.42080000042915344 -0.2630999982357025 0.891700029373169 0.39800000190734863 -0.21539999544620514
          -0.8889999985694885 0.44839999079704285 0.09239999949932098 0.2003999948501587 -0.7203999757766724 0.6639999747276306
          0.38530001044273376 -0.39640000462532043 0.833299994468689 -0.12890000641345978 -0.49709999561309814 0.8579999804496765
          -0.19550000131130219 -0.7947999835014343 0.5745000243186951 -0.39089998602867126 -0.8598999977111816 0.3280999958515167
          -0.32440000772476196 -0.6819999814033508 0.6553999781608582 -0.5389000177383423 -0.7635999917984009 0.3555999994277954
          0.49059998989105225 -0.871399998664856 -0.00009999999747378752 0.7875000238418579 -0.5873000025749207 0.186599999666214
          0.03819999843835831 -0.9891999959945679 0.14139999449253082 -0.3714999854564667 -0.9266999959945679 0.0560000017285347
          -0.267300009727478 -0.935699999332428 -0.23019999265670776 -0.018200000748038292 -0.9975000023841858 -0.06870000064373016
          -0.28949999809265137 -0.8098000288009644 0.510200023651123 -0.4237000048160553 -0.8877999782562256 0.17990000545978546
          -0.6269000172615051 -0.7028999924659729 0.335999995470047 0.9034000039100647 0.42820000648498535 -0.019200000911951065
          -0.8895999789237976 0.3711000084877014 0.26600000262260437 0.7572000026702881 -0.507099986076355 -0.4117000102996826
          0.03519999980926514 -0.9660000205039978 -0.25609999895095825 -0.3479999899864197 -0.9021000266075134 -0.2549000084400177
          -0.4422999918460846 -0.6266000270843506 -0.6416000127792358 0.3970000147819519 -0.7128999829292297 -0.578000009059906
          -0.895799994468689 0.3659000098705292 0.2522999942302704 0.40959998965263367 -0.753000020980835 -0.5149000287055969
          -0.24279999732971191 -0.6875 -0.6844000220298767 -0.39160001277923584 -0.24529999494552612 -0.8867999911308289
          0.5529999732971191 -0.7340999841690063 -0.39410001039505005 -0.3666999936103821 -0.7985000014305115 0.477400004863739
          0.7024000287055969 -0.5929999947547913 0.3935999870300293 0.30820000171661377 -0.5504999756813049 -0.7757999897003174
          -0.19930000603199005 -0.32710000872612 -0.9236999750137329 0.9957000017166138 -0.05649999901652336 -0.07280000299215317
          -0.6506999731063843 -0.00419999985024333 0.7591999769210815 -0.21070000529289246 0.8385000228881836 0.5023999810218811
          -0.916700005531311 0.1835000067949295 0.35499998927116394 0.3488999903202057 0.9316999912261963 0.10080000013113022
          0.8777999877929688 0.47870001196861267 0.018200000748038292 -0.8729000091552734 0.36730000376701355 0.32109999656677246
          0.8914999961853027 0.12540000677108765 0.43529999256134033 -0.6948999762535095 0.6747000217437744 0.24860000610351562
          0.7441999912261963 0.6600000262260437 0.10239999741315842 0.888700008392334 0.4489000141620636 0.0934000015258789
          0.9160000085830688 -0.06809999793767929 0.3953000009059906 0.7667999863624573 0.149399995803833 0.6243000030517578
          -0.9505000114440918 0.3043999969959259 0.06270000338554382 -0.11389999836683273 0.9760000109672546 0.18539999425411224
          -0.8906000256538391 0.2971000075340271 0.3443000018596649 0.7897999882698059 -0.2870999872684479 0.5418999791145325
          -0.006800000090152025 0.9955000281333923 -0.09489999711513519 -0.8708999752998352 0.31679999828338623 -0.3758000135421753
          0.6976000070571899 0.661300003528595 0.27559998631477356 -0.7505999803543091 0.42289999127388 0.5077000260353088
          0.6909000277519226 -0.7134000062942505 0.1168999969959259 0.5156999826431274 -0.3544999957084656 0.7799000144004822
          0.2287999987602234 -0.7777000069618225 -0.5853999853134155 -0.15459999442100525 -0.24869999289512634 -0.9560999870300293
          -0.2770000100135803 -0.08869999647140503 -0.9567000269889832 -0.31850001215934753 0.23360000550746918 -0.9186999797821045
          0.7979000210762024 0.566100001335144 -0.2069000005722046 0.8026000261306763 0.5324000120162964 0.2689000070095062
          -0.7347999811172485 0.43779999017715454 0.5181000232696533 -0.01850000023841858 -0.47760000824928284 -0.8784000277519226
          0.7735000252723694 0.39629998803138733 0.49459999799728394 -0.6067000031471252 0.5546000003814697 0.5694000124931335
          -0.5375999808311462 0.6177999973297119 0.5738000273704529 0.6534000039100647 0.30469998717308044 0.6929000020027161
          0.396699994802475 0.24240000545978546 0.8852999806404114 -0.5101000070571899 0.5985000133514404 0.6176999807357788
          -0.24130000174045563 0.5424000024795532 0.8047000169754028 0.08389999717473984 0.38510000705718994 0.9190000295639038
          -0.029200000688433647 0.4334999918937683 0.9006999731063843 0.29989999532699585 0.14409999549388885 -0.9430000185966492
          0.536300003528595 0.09709999710321426 -0.8384000062942505 -0.23090000450611115 0.19930000603199005 -0.9523000121116638
          -0.057999998331069946 0.18000000715255737 -0.9818999767303467 0.5770000219345093 0.11620000004768372 -0.8083999752998352
          -0.40389999747276306 0.2029000073671341 -0.8920000195503235 0.6137999892234802 0.19269999861717224 -0.765500009059906
          -0.6797999739646912 0.2045000046491623 -0.704200029373169 0.6018000245094299 0.2825999855995178 -0.7469000220298767
          0.7382000088691711 0.3617999851703644 -0.5692999958992004 -0.9379000067710876 0.23479999601840973 -0.25540000200271606
          0.7886999845504761 0.46209999918937683 -0.40529999136924744 -0.03449999913573265 -0.35920000076293945 0.9326000213623047
          -0.10490000247955322 -0.1867000013589859 0.9768000245094299 -0.3659999966621399 -0.45840001106262207 0.8098999857902527
          -0.43070000410079956 -0.15870000422000885 0.8884000182151794 -0.43470001220703125 -0.5077999830245972 0.7437000274658203
          -0.4555000066757202 -0.10119999945163727 0.8844000101089478 0.8126999735832214 0.5011000037193298 -0.2971999943256378
          0.8849999904632568 -0.2619999945163727 0.3847000002861023 0.15139999985694885 -0.09849999845027924 0.9836000204086304
          -0.49880000948905945 -0.47929999232292175 0.722100019454956 -0.3303999900817871 -0.16619999706745148 0.929099977016449
          -0.6535000205039978 -0.37959998846054077 0.6549000144004822 0.8845999836921692 0.45010000467300415 -0.121799997985363
          0.7960000038146973 0.5827000141143799 -0.164000004529953 -0.9656000137329102 0.21130000054836273 0.15150000154972076
          -0.8025000095367432 -0.5116999745368958 0.3066999912261963 0.9294000267982483 -0.2703000009059906 -0.25119999051094055
          -0.2517000138759613 -0.39480000734329224 -0.8835999965667725 0.23569999635219574 -0.462799996137619 -0.8544999957084656
          -0.7840999960899353 -0.6166999936103821 0.07020000368356705 -0.7526999711990356 -0.6534000039100647 0.08089999854564667
          0.8639000058174133 0.5033000111579895 0.02019999921321869 0.8485999703407288 0.5286999940872192 -0.020099999383091927
          -0.926800012588501 0.23970000445842743 0.2890999913215637 -0.25929999351501465 0.013899999670684338 -0.9656999707221985
          -0.47350001335144043 -0.011699999682605267 -0.8806999921798706 0.006399999838322401 -0.10769999772310257 -0.9940999746322632
          0.5521000027656555 -0.3427000045776367 -0.7601000070571899 0.7488999962806702 -0.2824000120162964 -0.599399983882904
          0.4986000061035156 -0.2962999939918518 -0.8145999908447266 -0.8366000056266785 -0.4796000123023987 0.2646999955177307
          0.8565999865531921 0.44510000944137573 0.26100000739097595 0.7782999873161316 -0.3052000105381012 -0.5486999750137329
          -0.3068999946117401 -0.12680000066757202 -0.9431999921798706 0.631600022315979 -0.010900000110268593 -0.7752000093460083
          0.9307000041007996 0.28529998660087585 -0.2290000021457672 -0.9718000292778015 -0.22930000722408295 0.05559999868273735
          -0.7784000039100647 -0.5917999744415283 -0.2092999964952469 0.933899998664856 0.06669999659061432 0.35109999775886536
          0.2892000079154968 -0.3102000057697296 -0.9056000113487244 0.7656000256538391 0.45089998841285706 0.45890000462532043
          0.7968000173568726 0.1678999960422516 -0.5803999900817871 0.8511999845504761 0.5164999961853027 0.09319999814033508
          0.960099995136261 0.24619999527931213 -0.13259999454021454 -0.9362000226974487 -0.2053000032901764 -0.2851000130176544
          0.9998000264167786 0.014499999582767487 0.01269999984651804 0.4375999867916107 0.3449000120162964 0.830299973487854
          0.43880000710487366 0.5241000056266785 0.7299000024795532 0.7811999917030334 0.4018999934196472 0.47760000824928284
          0.4117000102996826 -0.09489999711513519 0.9063000082969666 -0.05900000035762787 0.1873999983072281 0.9804999828338623
          -0.8553000092506409 -0.0502999983727932 -0.5156999826431274 0.9442999958992004 0.32850000262260437 -0.017899999395012856
          -0.9045000076293945 0.2720000147819519 0.32839998602867126 0.3188000023365021 -0.6844000220298767 0.6556000113487244
          0.39879998564720154 -0.0778999999165535 0.9136999845504761 0.3698999881744385 -0.19349999725818634 0.9086999893188477
          0.9721999764442444 -0.1687999963760376 0.1624000072479248 -0.5400999784469604 -0.10000000149011612 -0.8356000185012817
          0.7505999803543091 0.5648999810218811 0.34279999136924744 -0.8356000185012817 0.40310001373291016 0.37310001254081726
          0.944599986076355 -0.08940000087022781 0.3156000077724457 0.2957000136375427 -0.9266999959945679 0.23190000653266907
          -0.030700000002980232 -0.9526000022888184 -0.302700012922287 -0.295199990272522 -0.3111000061035156 -0.9032999873161316
          0.7495999932289124 0.48829999566078186 0.44679999351501465 0.43959999084472656 -0.741100013256073 -0.5073999762535095
          0.6769999861717224 -0.03550000116229057 -0.7350999712944031 0.019899999722838402 -0.6229000091552734 -0.7820000052452087
          0.023900000378489494 -0.26330000162124634 -0.9643999934196472 -0.11909999698400497 -0.31700000166893005 -0.9409000277519226
          0.628600001335144 0.447299987077713 0.6362000107765198 -0.7060999870300293 0.45980000495910645 0.5383999943733215
          0.12240000069141388 0.13500000536441803 -0.9832000136375427 0.5900999903678894 0.3012000024318695 0.7490000128746033
          -0.6222000122070312 0.515999972820282 0.588699996471405 0.4309000074863434 0.38609999418258667 0.8155999779701233
          -0.5784000158309937 0.4657999873161316 0.669700026512146 0.1436000019311905 0.4049000144004822 0.902999997138977
          0.3059000074863434 0.3804999887943268 0.8726999759674072 -0.41290000081062317 0.4115000069141388 0.8125
          0.010999999940395355 0.43320000171661377 0.901199996471405 -0.04470000043511391 0.0892999991774559 -0.9950000047683716
          0.13210000097751617 0.02590000070631504 -0.9908999800682068 0.39410001039505005 0.020899999886751175 -0.9187999963760376
          0.51419997215271 0.009100000374019146 -0.8575999736785889 -0.25189998745918274 0.08160000294446945 -0.9642999768257141
          -0.5289000272750854 0.021400000900030136 -0.8483999967575073 0.4512999951839447 0.04580000042915344 -0.8912000060081482
          0.4772999882698059 0.17910000681877136 -0.8603000044822693 -0.7511000037193298 0.05220000073313713 -0.6581000089645386
          0.6208999752998352 0.43959999084472656 -0.6489999890327454 -0.9018999934196472 -0.013700000010430813 -0.4318000078201294
          0.6992999911308289 0.5572999715805054 -0.44769999384880066 -0.9848999977111816 0.051600001752376556 -0.16529999673366547
          -0.04129999876022339 -0.09399999678134918 0.994700014591217 -0.047200001776218414 0.014600000344216824 0.9987000226974487
          -0.22869999706745148 0.0640999972820282 0.9714000225067139 -0.5022000074386597 0.08020000159740448 0.8610000014305115
          0.758899986743927 0.6166999936103821 -0.20900000631809235 0.8862000107765198 -0.14910000562667847 0.43860000371932983
          0.4964999854564667 -0.05310000106692314 0.8664000034332275 -0.5436999797821045 0.13670000433921814 0.8281000256538391
          -0.3522999882698059 -0.012600000016391277 0.9358000159263611 -0.7253000140190125 -0.12880000472068787 0.6761999726295471
          0.7838000059127808 0.619700014591217 -0.03840000182390213 -0.9947999715805054 0.021800000220537186 0.09989999979734421
          0.9965999722480774 -0.08219999819993973 0.008700000122189522 -0.8543999791145325 -0.3594000041484833 0.3750999867916107
          -0.8413000106811523 -0.08590000122785568 0.5336999893188477 0.8547999858856201 0.5101000070571899 0.09570000320672989
          0.7073000073432922 0.6593999862670898 0.25459998846054077 -0.9656999707221985 0.13770000636577606 0.2198999971151352
          -0.8137000203132629 -0.1932000070810318 0.54830002784729 0.920199990272522 0.295199990272522 0.25679999589920044
          0.7139999866485596 0.392300009727478 0.5799000263214111 0.9311000108718872 -0.1542000025510788 -0.3305000066757202
          0.5178999900817871 -0.0940999984741211 -0.8501999974250793 0.6194000244140625 -0.49070000648498535 -0.6128000020980835
          0.8924000263214111 -0.09109999984502792 -0.44200000166893005 -0.7282000184059143 -0.5533999800682068 0.4043000042438507
          -0.3662000000476837 -0.3095000088214874 0.8776000142097473 0.7261999845504761 0.007799999788403511 0.6873999834060669
          0.353300005197525 -0.07450000196695328 0.9325000047683716 -0.5357999801635742 -0.00279999990016222 -0.8442999720573425
          0.5903000235557556 -0.7620000243186951 -0.2662999927997589 0.9539999961853027 -0.2676999866962433 0.13459999859333038
          -0.008700000122189522 -0.652999997138977 -0.7573000192642212 0.11869999766349792 0.014600000344216824 -0.9927999973297119
          0.5698000192642212 0.1890999972820282 -0.7997000217437744 -0.5091999769210815 -0.8137999773025513 -0.2800000011920929
          -0.4242999851703644 -0.8953999876976013 -0.13449999690055847 0.1307000070810318 -0.8427000045776367 0.5221999883651733
          0.32120001316070557 -0.16359999775886536 -0.932699978351593 0.7700999975204468 -0.13609999418258667 -0.623199999332428
          -0.3230000138282776 -0.019099999219179153 -0.9462000131607056 -0.149399995803833 -0.9847000241279602 0.08969999849796295
          -0.9868999719619751 0.1565999984741211 -0.038600001484155655 -0.8205999732017517 0.4065000116825104 -0.4016999900341034
          0.8083999752998352 0.15219999849796295 -0.5684999823570251 -0.599399983882904 -0.6223000288009644 -0.5034000277519226
          0.9916999936103821 0.11749999970197678 -0.051500000059604645 -0.328900009393692 -0.8302000164985657 -0.45010000467300415
          0.5539000034332275 -0.8284000158309937 -0.0835999995470047 0.39089998602867126 -0.8188999891281128 0.420199990272522
          0.88919997215271 -0.4065000116825104 0.20960000157356262 -0.5544000267982483 -0.3903000056743622 0.7350000143051147
          -0.8907999992370605 0.3172000050544739 0.325300008058548 0.9617999792098999 0.09350000321865082 0.257099986076355
          -0.6193000078201294 -0.6355999708175659 -0.4609000086784363 0.05460000038146973 -0.7710999846458435 -0.6342999935150146
          -0.5317000150680542 0.40049999952316284 -0.7462000250816345 0.13099999725818634 0.8364999890327454 -0.5320000052452087
          -0.05000000074505806 0.541100025177002 -0.8393999934196472 -0.16680000722408295 -0.1234000027179718 -0.9782000184059143
          0.5885000228881836 0.7200000286102295 -0.3677000105381012 0.7473000288009644 0.6643000245094299 0.009800000116229057
          0.6503000259399414 -0.6240000128746033 0.43309998512268066 0.039900001138448715 -0.4156000018119812 0.9086999893188477
          -0.6909000277519226 0.4575999975204468 0.5595999956130981 0.06379999965429306 0.37220001220703125 0.9258999824523926
          0.5083000063896179 0.4050999879837036 0.7598999738693237 0.6158999800682068 0.12610000371932983 0.7777000069618225
          -0.6669999957084656 -0.6265000104904175 -0.4032999873161316 -0.4537000060081482 -0.6966000199317932 -0.5558000206947327
          -0.5370000004768372 -0.501800000667572 -0.6780999898910522 0.7429999709129333 0.6309000253677368 -0.2232999950647354
          -0.9294999837875366 0.3301999866962433 0.16449999809265137 0.7149999737739563 0.34790000319480896 0.6064000129699707
          0.8942999839782715 0.4251999855041504 -0.13899999856948853 0.8798999786376953 0.26089999079704285 -0.3971000015735626
          -0.2037999927997589 0.4056999981403351 0.890999972820282 -0.670199990272522 -0.38530001044273376 -0.6342999935150146
          0.7235999703407288 0.5694000124931335 0.39010000228881836 0.6625999808311462 0.7024999856948853 0.2597000002861023
          0.8123000264167786 0.5788999795913696 -0.0714000016450882 -0.43639999628067017 -0.4194999933242798 -0.7958999872207642
          -0.5357000231742859 -0.5432000160217285 -0.6464999914169312 0.5501999855041504 0.4885999858379364 0.6771000027656555
          0.5407999753952026 0.5708000063896179 -0.617900013923645 0.6723999977111816 0.3531999886035919 -0.6503999829292297
          0.7986000180244446 0.45890000462532043 -0.38929998874664307 -0.19609999656677246 -0.35109999775886536 -0.9156000018119812
          -0.4058000147342682 -0.2928999960422516 -0.8657000064849854 -0.3052000105381012 -0.12060000002384186 -0.944599986076355
          0.5067999958992004 0.3880000114440918 0.7698000073432922 -0.8496999740600586 0.3571000099182129 0.3880000114440918
          0.3880000114440918 0.05510000139474869 -0.9200000166893005 0.12189999967813492 0.014399999752640724 -0.9923999905586243
          -0.11140000075101852 0.06109999865293503 -0.9919000267982483 0.5717999935150146 0.37400001287460327 0.7300999760627747
          0.6585000157356262 0.2630999982357025 0.7050999999046326 -0.7404999732971191 0.37389999628067017 0.5583999752998352
          0.6182000041007996 0.38749998807907104 0.683899998664856 0.7067000269889832 0.24410000443458557 0.6640999913215637
          -0.6718999743461609 0.39010000228881836 0.6294999718666077 0.2915000021457672 0.5647000074386597 0.7720999717712402
          0.5059999823570251 0.49050000309944153 0.7095000147819519 -0.6284000277519226 0.41179999709129333 0.6600000262260437
          -0.557200014591217 0.4706000089645386 0.6840999722480774 -0.20309999585151672 0.5040000081062317 0.8393999934196472
          0.11869999766349792 0.535099983215332 0.8363000154495239 0.3425999879837036 0.5830000042915344 0.7366999983787537
          -0.42100000381469727 0.47119998931884766 0.7749999761581421 -0.005100000184029341 0.6015999913215637 0.7986999750137329
          0.12780000269412994 0.6274999976158142 0.7680000066757202 -0.12219999730587006 -0.014299999922513962 -0.9923999905586243
          -0.320499986410141 -0.02969999983906746 -0.9466999769210815 0.3856000006198883 0.1177000030875206 -0.9150999784469604
          0.4537000060081482 0.20469999313354492 -0.8672999739646912 0.557200014591217 0.2378000020980835 -0.7955999970436096
          0.7062000036239624 0.3215000033378601 -0.6308000087738037 0.8083999752998352 0.48350000381469727 -0.33570000529289246
          0.8429999947547913 0.3005000054836273 -0.44620001316070557 -0.9589999914169312 -0.07999999821186066 -0.2720000147819519
          0.5177000164985657 -0.00570000009611249 0.8555999994277954 0.03999999910593033 -0.0017000000225380063 0.9991999864578247
          -0.1264999955892563 0.07970000058412552 0.9886999726295471 -0.37929999828338623 0.2425999939441681 0.8928999900817871
          0.8644999861717224 0.3743000030517578 -0.3352999985218048 -0.9785000085830688 -0.0284000001847744 -0.20409999787807465
          0.8812999725341797 0.00139999995008111 0.4724999964237213 -0.21320000290870667 0.0005000000237487257 0.9769999980926514
          -0.6291999816894531 0.02199999988079071 0.7768999934196472 0.8263999819755554 0.5623999834060669 -0.026599999517202377
          0.8496000170707703 0.4821999967098236 -0.21359999477863312 -0.996399998664856 0.05959999933838844 -0.05990000069141388
          0.9868999719619751 -0.10939999669790268 -0.11810000240802765 0.5385000109672546 0.3179999887943268 -0.7803000211715698