<?xml version="1.0"?>
<VTKFile type="PolyData" version="0.1" byte_order="LittleEndian" header_type="UInt32" compressor="vtkZLibDataCompressor">
  <PolyData>
    <FieldData>
      <Array type="String" Name="MaterialNames" NumberOfTuples="1" format="ascii">
        109 97 116 101 114 105 97 108 95 48 0
      </Array>
      <Array type="String" Name="MaterialLibraries" NumberOfTuples="1" format="ascii">
        109 97 116 101 114 105 97 108 46 109 116 108 0
      </Array>
    </FieldData>
    <Piece NumberOfPoints="283" NumberOfVerts="0" NumberOfLines="0" NumberOfStrips="0" NumberOfPolys="560">
      <PointData Normals="Normals">
        <DataArray type="Float32" Name="Normals" NumberOfComponents="3" format="ascii" RangeMin="0.999927229619373" RangeMax="1.0000719229649544">
          0.31459999084472656 -0.646399974822998 0.6952000260353088 0.46549999713897705 -0.5270000100135803 0.7110000252723694
          0.24549999833106995 -0.617900013923645 0.746999979019165 -0.5884000062942505 0.6532999873161316 -0.476500004529953
          -0.45010000467300415 0.5285000205039978 -0.7197999954223633 -0.6065000295639038 0.383899986743927 -0.6963000297546387
          -0.47200000286102295 0.0737999975681305 -0.8784999847412109 -0.6772000193595886 0.24469999969005585 -0.6938999891281128
          -0.4009999930858612 0.33489999175071716 -0.8526999950408936 0.8087999820709229 -0.21629999577999115 0.5468000173568726
          0.4343000054359436 -0.3158999979496002 0.843500018119812 0.3508000075817108 -0.5914999842643738 0.7260000109672546
          -0.16990000009536743 0.9052000045776367 -0.3894999921321869 -0.43479999899864197 0.8367000222206116 -0.3328999876976013
          0.013700000010430813 0.972100019454956 -0.23399999737739563 0.2833000123500824 -0.6244999766349792 0.7278000116348267
          0.5284000039100647 -0.49630001187324524 0.6887999773025513 0.5098999738693237 -0.3546000123023987 0.7836999893188477
          0.9305999875068665 -0.3659000098705292 -0.012000000104308128 0.47519999742507935 -0.049800001084804535 -0.8784999847412109
          0.6398000121116638 -0.4219000041484833 -0.6424000263214111 0.8574000000953674 0.25380000472068787 -0.44780001044273376
          0.6883000135421753 0.5185999870300293 -0.5072000026702881 0.9772999882698059 0.17890000343322754 -0.11389999836683273
          0.9383000135421753 -0.21889999508857727 0.2676999866962433 0.944599986076355 0.009499999694526196 0.328000009059906
          -0.2655999958515167 -0.5942999720573425 -0.7591000199317932 -0.5551999807357788 -0.6051999926567078 -0.5703999996185303
          -0.6230999827384949 -0.26019999384880066 -0.7376000285148621 -0.9789999723434448 -0.16779999434947968 -0.11620000004768372
          -0.9226999878883362 -0.26260000467300415 -0.2822999954223633 -0.7664999961853027 -0.6019999980926514 -0.22360000014305115
          -0.9793999791145325 0.18389999866485596 0.08340000361204147 -0.9038000106811523 0.36149999499320984 -0.2290000021457672
          -0.9879999756813049 0.09769999980926514 0.11940000206232071 0.4433000087738037 0.6047999858856201 0.6615999937057495
          -0.019099999219179153 0.641700029373169 0.766700029373169 0.5879999995231628 0.08139999955892563 0.8047999739646912
          -0.7034000158309937 0.13359999656677246 -0.6980999708175659 -0.9575999975204468 -0.0008999999845400453 -0.28790000081062317
          -0.5037000179290771 -0.5238999724388123 -0.6868000030517578 0.8109999895095825 -0.41269999742507935 0.4147000014781952
          0.6776000261306763 -0.14249999821186066 0.7214999794960022 0.7639999985694885 -0.2061000019311905 0.6114000082015991
          0.6406000256538391 -0.7480999827384949 0.17309999465942383 0.6686999797821045 0.14149999618530273 0.7299000024795532
          0.7350999712944031 -0.2053000032901764 0.6462000012397766 -0.3752000033855438 0.33410000801086426 -0.8646000027656555
          -0.521399974822998 -0.2865000069141388 -0.8037999868392944 -0.5698999762535095 0.32030001282691956 -0.7566999793052673
          0.9279000163078308 0.27730000019073486 0.2493000030517578 0.6280999779701233 -0.4562000036239624 0.630299985408783
          0.9042999744415283 0.19539999961853027 0.3797000050544739 0.430400013923645 -0.47130000591278076 0.7698000073432922
          0.19750000536441803 0.15549999475479126 0.9678999781608582 0.1850000023841858 -0.5706999897956848 0.8001000285148621
          -0.9225999712944031 0.35109999775886536 -0.16009999811649323 -0.9387999773025513 0.15760000050067902 -0.3061999976634979
          -0.9674999713897705 0.22869999706745148 0.10760000348091125 -0.156700000166893 0.8025000095367432 0.5756999850273132
          -0.02669999934732914 0.2784000039100647 0.960099995136261 0.013000000268220901 0.28299999237060547 0.9589999914169312
          0.06239999830722809 0.20999999344348907 -0.9757000207901001 -0.2808000147342682 0.12610000371932983 -0.9513999819755554
          -0.26269999146461487 0.26809999346733093 -0.9269000291824341 -0.42500001192092896 0.7814000248908997 -0.4569000005722046
          0.510200023651123 -0.8517000079154968 0.11980000138282776 0.5587000250816345 -0.8260999917984009 -0.07349999994039536
          0.05050000175833702 -0.9585000276565552 0.2806999981403351 0.41440001130104065 -0.8787999749183655 0.23649999499320984
          0.0794999971985817 -0.8621000051498413 0.5005000233650208 0.15620000660419464 -0.9193000197410583 0.3614000082015991
          0.1071000024676323 -0.9413999915122986 0.3199000060558319 0.007699999958276749 -0.9204999804496765 0.39070001244544983
          0.4153999984264374 -0.6571999788284302 0.6290000081062317 0.4837999939918518 -0.8314999938011169 0.27300000190734863
          0.18529999256134033 -0.6895999908447266 0.7001000046730042 0.3384000062942505 -0.871999979019165 0.3537999987602234
          0.2337999939918518 -0.8483999967575073 0.4747999906539917 0.22859999537467957 -0.7967000007629395 0.559499979019165
          0.9666000008583069 -0.009499999694526196 0.25609999895095825 0.9593999981880188 0.009600000455975533 0.28200000524520874
          -0.6119999885559082 -0.7749999761581421 0.15780000388622284 -0.9121999740600586 0.35679998993873596 -0.2013999968767166
          -0.6937999725341797 -0.022600000724196434 0.7197999954223633 -0.8902000188827515 0.44679999351501465 0.08950000256299973
          0.4503999948501587 0.8241999745368958 -0.3433000147342682 0.3052000105381012 0.9377999901771545 -0.1656000018119812
          0.3671000003814697 0.9279999732971191 0.06319999694824219 0.19259999692440033 0.9735999703407288 -0.12280000001192093
          -0.817799985408783 0.541700005531311 -0.1941000074148178 -0.6820999979972839 0.7006999850273132 0.2092999964952469
          -0.47360000014305115 0.8346999883651733 0.28110000491142273 -0.5785999894142151 0.7009999752044678 -0.41690000891685486
          -0.39430001378059387 0.8528000116348267 -0.3422999978065491 -0.04879999905824661 0.9624999761581421 0.2669000029563904
          0.30399999022483826 0.940500020980835 0.15160000324249268 0.8804000020027161 0.010700000450015068 -0.4740999937057495
          0.9074000120162964 0.008299999870359898 0.4203000068664551 0.8518999814987183 -0.375900000333786 0.3646000027656555
          -0.725600004196167 0.6480000019073486 0.23149999976158142 -0.5394999980926514 0.8140000104904175 0.2151000052690506
          0.025699999183416367 0.4422999918460846 0.8964999914169312 0.2460000067949295 -0.9476000070571899 0.2037000060081482
          -0.24639999866485596 -0.6676999926567078 -0.7024999856948853 0.3244999945163727 -0.9264000058174133 -0.19089999794960022
          0.03449999913573265 -0.6879000067710876 0.7250000238418579 -0.0851999968290329 -0.1737000048160553 0.9811000227928162
          -0.039000000804662704 -0.3384000062942505 0.9401999711990356 0.8148999810218811 -0.19830000400543213 0.5446000099182129
          0.843999981880188 -0.3043000102043152 0.4417000114917755 0.39419999718666077 -0.6036999821662903 0.6929000020027161
          0.4034000039100647 -0.6593999862670898 -0.6344000101089478 -0.046799998730421066 -0.9667999744415283 0.2513999938964844
          0.3718000054359436 -0.9269999861717224 0.04839999973773956 0.10819999873638153 -0.7305999994277954 -0.6741999983787537
          -0.15620000660419464 -0.8762000203132629 -0.4560000002384186 0.7695000171661377 -0.1151999980211258 -0.6281999945640564
          0.06289999932050705 0.10180000215768814 -0.9927999973297119 -0.7896999716758728 -0.37369999289512634 -0.48660001158714294
          -0.6510000228881836 0.019300000742077827 -0.7588000297546387 0.7293999791145325 -0.6226999759674072 -0.2833000123500824
          0.4275999963283539 -0.859000027179718 -0.2815000116825104 0.44179999828338623 -0.7921000123023987 0.4212999939918518
          0.5250999927520752 -0.590399980545044 0.6129000186920166 0.715499997138977 -0.557699978351593 0.42080000042915344
          0.6274999976158142 -0.6287999749183655 0.459199994802475 0.873199999332428 -0.26100000739097595 0.4117000102996826
          0.7296000123023987 -0.19609999656677246 0.6550999879837036 0.45910000801086426 0.694599986076355 -0.5539000034332275
          0.7454000115394592 0.6399999856948853 0.186599999666214 -0.26930001378059387 -0.43860000371932983 -0.8574000000953674
          0.6111999750137329 0.10379999876022339 -0.784600019454956 0.38670000433921814 0.1446000039577484 -0.9107999801635742
          0.1800999939441681 0.7257000207901001 -0.6640999913215637 -0.1898999959230423 0.5130000114440918 -0.8371000289916992
          -0.07490000128746033 0.5878999829292297 -0.805400013923645 -0.06499999761581421 0.38600000739097595 -0.920199990272522
          -0.21860000491142273 -0.7228000164031982 -0.6554999947547913 0.3458999991416931 -0.3190999925136566 0.8823000192642212
          0.5217000246047974 -0.16680000722408295 0.8366000056266785 0.21160000562667847 -0.20419999957084656 0.9557999968528748
          0.5098999738693237 -0.1940000057220459 0.838100016117096 0.7871000170707703 -0.18389999866485596 0.588699996471405
          -0.6729000210762024 0.7091000080108643 -0.21089999377727509 0.7854999899864197 0.035100001841783524 -0.6177999973297119
          0.4661000072956085 -0.4025000035762787 0.7878999710083008 0.7555999755859375 0.507099986076355 0.4146000146865845
          0.09189999848604202 -0.9945999979972839 0.047600001096725464 0.6158000230789185 -0.6571999788284302 0.43459999561309814
          0.5066999793052673 -0.7512999773025513 0.4228000044822693 -0.43059998750686646 -0.7967000007629395 -0.42399999499320984
          -0.5598999857902527 -0.7228999733924866 -0.40470001101493835 -0.7161999940872192 -0.38580000400543213 -0.5814999938011169
          -0.09120000153779984 0.9711999893188477 0.22010000050067902 0.45089998841285706 0.3564000129699707 0.8183000087738037
          0.18459999561309814 0.9440000057220459 -0.2734000086784363 -0.9649999737739563 0.2522999942302704 -0.07090000063180923
          -0.8790000081062317 0.2282000035047531 0.4187000095844269 0.748199999332428 0.12950000166893005 0.6506999731063843
          0.5174999833106995 -0.39070001244544983 0.7613000273704529 0.25839999318122864 -0.5996000170707703 0.7574999928474426
          -0.7739999890327454 -0.37139999866485596 -0.5127999782562256 -0.5763000249862671 -0.4593000113964081 -0.6758999824523926
          -0.3009999990463257 -0.7533000111579895 -0.5848000049591064 0.11999999731779099 -0.777999997138977 -0.6166999936103821
          -0.3025999963283539 -0.25270000100135803 -0.9190000295639038 0.48420000076293945 -0.6276000142097473 -0.6097000241279602
          0.3215000033378601 -0.3799000084400177 -0.8672999739646912 0.8851000070571899 -0.4284000098705292 -0.18209999799728394
          -0.005499999970197678 0.65420001745224 -0.7562999725341797 -0.009200000204145908 0.32989999651908875 -0.9440000057220459
          0.21289999783039093 0.8055999875068665 -0.5527999997138977 0.6021000146865845 0.79830002784729 -0.010300000198185444
          0.5615000128746033 0.8012999892234802 -0.20630000531673431 0.7965999841690063 -0.1606999933719635 0.5827000141143799
          0.7822999954223633 -0.5152000188827515 0.35019999742507935 0.12720000743865967 -0.5626999735832214 0.8167999982833862
          -0.26030001044273376 -0.7560999989509583 0.6004999876022339 0.16279999911785126 -0.7613000273704529 0.6276000142097473
          -0.7239999771118164 0.3919999897480011 0.5676000118255615 0.015699999406933784 -0.15800000727176666 0.9872999787330627
          -0.1940000057220459 -0.5440999865531921 0.8162999749183655 -0.753600001335144 0.4156999886035919 -0.5091999769210815
          -0.8331999778747559 0.38420000672340393 -0.3977000117301941 -0.7307000160217285 0.5325999855995178 -0.42719998955726624
          -0.8842999935150146 0.24009999632835388 -0.4004000127315521 -0.7946000099182129 -0.05180000141263008 -0.6049000024795532
          0.22529999911785126 -0.9742000102996826 -0.013100000098347664 0.9070000052452087 0.421099990606308 -0.010400000028312206
          0.8881000280380249 0.4523000121116638 -0.08169999718666077 -0.8777999877929688 0.4684000015258789 -0.09989999979734421
          -0.6722999811172485 0.6578999757766724 -0.3393000066280365 -0.6471999883651733 0.7192000150680542 -0.2524999976158142
          0.9207000136375427 -0.32260000705718994 -0.21940000355243683 0.6953999996185303 -0.4977000057697296 0.5184000134468079
          0.1728000044822693 -0.8235999941825867 0.5403000116348267 -0.7856000065803528 0.16009999811649323 0.597599983215332
          -0.9218000173568726 0.19339999556541443 0.3359000086784363 -0.052299998700618744 -0.23260000348091125 0.9711999893188477
          0.4724000096321106 -0.2946999967098236 0.8306999802589417 0.5895000100135803 -0.7996000051498413 -0.1143999993801117
          0.6923999786376953 -0.5157999992370605 0.5044999718666077 0.3734999895095825 -0.9276000261306763 -0.006800000090152025
          -0.32670000195503235 0.7023000121116638 -0.6324999928474426 -0.20389999449253082 0.8058000206947327 -0.5559999942779541
          -0.05530000105500221 0.791100025177002 -0.6093000173568726 -0.23250000178813934 -0.5181999802589417 0.8230000138282776
          -0.8011000156402588 -0.3010999858379364 0.5171999931335449 -0.9842000007629395 -0.05979999899864197 -0.1664000004529953
          -0.8921999931335449 -0.032499998807907104 -0.4503999948501587 -0.5845000147819519 -0.8095999956130981 0.05389999970793724
          -0.25450000166893005 0.926800012588501 -0.2759999930858612 -0.05620000138878822 -0.3140000104904175 -0.9477999806404114
          -0.6323999762535095 0.6017000079154968 -0.4878999888896942 -0.7416999936103821 0.20649999380111694 -0.6381999850273132
          -0.7267000079154968 0.48240000009536743 0.48910000920295715 -0.9283000230789185 0.3700999915599823 0.035999998450279236
          -0.7735999822616577 0.07000000029802322 0.629800021648407 -0.8325999975204468 0.4602000117301941 -0.30809998512268066
          0.07530000060796738 -0.8579000234603882 0.5081999897956848 0.4537000060081482 -0.28540000319480896 -0.8442000150680542
          0.02539999969303608 -0.06040000170469284 -0.9979000091552734 0.7565000057220459 -0.27480000257492065 0.593500018119812
          0.8130999803543091 -0.06769999861717224 0.5781999826431274 0.4099999964237213 -0.4142000079154968 0.8126000165939331
          0.677299976348877 -0.4643000066280365 0.5706999897956848 0.8849999904632568 -0.34470000863075256 0.31290000677108765
          0.8870000243186951 -0.06360000371932983 0.45730000734329224 0.2222999930381775 -0.09149999916553497 -0.9707000255584717
          0.2296999990940094 -0.9124000072479248 -0.33889999985694885 0.06989999860525131 -0.20239999890327454 0.9768000245094299
          0.21619999408721924 0.3034000098705292 0.9279999732971191 0.6118999719619751 0.5641999840736389 0.5543000102043152
          0.23119999468326569 0.9717000126838684 -0.04769999906420708 -0.7634999752044678 0.511900007724762 0.3937999904155731
          0.2563000023365021 -0.8955000042915344 0.3637999892234802 0.3790000081062317 -0.5594000220298767 0.7372000217437744
          0.580299973487854 -0.6543999910354614 0.4848000109195709 -0.5022000074386597 -0.8614000082015991 0.07599999755620956
          -0.21480000019073486 -0.9757000207901001 -0.04320000112056732 -0.9776999950408936 0.16519999504089355 -0.1298999935388565
          -0.9739000201225281 -0.013899999670684338 -0.2264000028371811 -0.9442999958992004 0.30889999866485596 -0.11320000141859055
          0.11900000274181366 0.8888999819755554 -0.4422999918460846 0.003000000026077032 0.7150999903678894 -0.6990000009536743
          0.35690000653266907 0.8586000204086304 -0.367900013923645 0.8033000230789185 0.5397999882698059 -0.2515999972820282
          0.8276000022888184 -0.5077999830245972 0.23919999599456787 -0.7253999710083008 -0.6815999746322632 -0.09589999914169312
          0.3165999948978424 -0.804099977016449 0.5030999779701233 0.24940000474452972 -0.8105999827384949 0.5297999978065491
          0.15080000460147858 -0.06340000033378601 -0.9865000247955322 -0.17149999737739563 0.3833000063896179 -0.9075999855995178
          -0.1826999932527542 0.9034000039100647 -0.3880000114440918 -0.5248000025749207 0.7750999927520752 -0.35190001130104065
          0.30709999799728394 -0.6201000213623047 0.722000002861023 0.3237999975681305 0.04479999840259552 -0.9451000094413757
          -0.9192000031471252 0.12200000137090683 -0.37450000643730164 0.7250999808311462 0.4163999855518341 0.5486000180244446
          -0.6848000288009644 0.6496999859809875 -0.33000001311302185 -0.5777999758720398 0.7297000288963318 -0.36559998989105225
          0.6797999739646912 -0.3402999937534332 0.6496999859809875 -0.949999988079071 0.2912999987602234 0.11230000108480453
          -0.1598999947309494 -0.4345000088214874 -0.8863999843597412 0.3418000042438507 -0.6261000037193298 0.7008000016212463
          -0.06390000134706497 0.8873999714851379 -0.45649999380111694 -0.08089999854564667 0.6644999980926514 -0.742900013923645
          -0.13330000638961792 0.4666000008583069 0.8743000030517578 -0.4659000039100647 0.8258000016212463 0.31790000200271606
          0.6335999965667725 -0.761900007724762 0.1339000016450882 0.41990000009536743 -0.8998000025749207 -0.11819999665021896
          0.5479999780654907 0.0794999971985817 0.8327000141143799 -0.2906999886035919 -0.15320000052452087 -0.9445000290870667
          0.7106999754905701 0.6772000193595886 -0.1906999945640564 0.965399980545044 -0.00800000037997961 0.2606000006198883
          0.9340000152587891 -0.03689999878406525 0.35530000925064087 0.7605999708175659 -0.13120000064373016 0.6358000040054321
          0.3855000138282776 0.2345999926328659 0.8924000263214111 -0.9660999774932861 0.02930000051856041 0.2563999891281128
          -0.40119999647140503 0.9089999794960022 0.11309999972581863 0.0877000018954277 -0.8137000203132629 0.5745999813079834
          -0.15860000252723694 -0.8765000104904175 0.4546000063419342
          <InformationKey name="L2_NORM_RANGE" location="vtkDataArray" length="2">
            <Value index="0">
              0.99992722962
            </Value>
            <Value index="1">
              1.000071923
            </Value>
          </InformationKey>
        </DataArray>
      </PointData>
      <CellData>
        <DataArray type="Int32" Name="MaterialIds" format="ascii" RangeMin="0" RangeMax="0">
          0 0 0 0 0 0
          0 0 0 0 0 0
          0 0 0 0 0 0
          0 0 0 0 0 0
          0 0 0 0 0 0
          0 0 0 0 0 0
          0 0 0 0 0 0
          0 0 0 0 0 0
          0 0 0 0 0 0
          0 0 0 0 0 0
          0 0 0 0 0 0
          0 0 0 0 0 0
          0 0 0 0 0 0
          0 0 0 0 0 0
          0 0 0 0 0 0
          0 0 0 0 0 0
          0 0 0 0 0 0
          0 0 0 0 0 0
          0 0 0 0 0 0
          0 0 0 0 0 0
          0 0 0 0 0 0
          0 0 0 0 0 0
          0 0 0 0 0 0
          0 0 0 0 0 0
          0 0 0 0 0 0
          0 0 0 0 0 0
          0 0 0 0 0 0
          0 0 0 0 0 0
          0 0 0 0 0 0
          0 0 0 0 0 0
          0 0 0 0 0 0
          0 0 0 0 0 0
          0 0 0 0 0 0
          0 0 0 0 0 0
          0 0 0 0 0 0
          0 0 0 0 0 0
          0 0 0 0 0 0
          0 0 0 0 0 0
          0 0 0 0 0 0
          0 0 0 0 0 0
          0 0 0 0 0 0
          0 0 0 0 0 0
          0 0 0 0 0 0
          0 0 0 0 0 0
          0 0 0 0 0 0
          0 0 0 0 0 0
          0 0 0 0 0 0
          0 0 0 0 0 0
          0 0 0 0 0 0
          0 0 0 0 0 0
          0 0 0 0 0 0
          0 0 0 0 0 0
          0 0 0 0 0 0
          0 0 0 0 0 0
          0 0 0 0 0 0
          0 0 0 0 0 0
          0 0 0 0 0 0
          0 0 0 0 0 0
          0 0 0 0 0 0
          0 0 0 0 0 0
          0 0 0 0 0 0
          0 0 0 0 0 0
          0 0 0 0 0 0
          0 0 0 0 0 0
          0 0 0 0 0 0
          0 0 0 0 0 0
          0 0 0 0 0 0
          0 0 0 0 0 0
          0 0 0 0 0 0
          0 0 0 0 0 0
          0 0 0 0 0 0
          0 0 0 0 0 0
          0 0 0 0 0 0
          0 0 0 0 0 0
          0 0 0 0 0 0
          0 0 0 0 0 0
          0 0 0 0 0 0
          0 0 0 0 0 0
          0 0 0 0 0 0
          0 0 0 0 0 0
          0 0 0 0 0 0
          0 0 0 0 0 0
          0 0 0 0 0 0
          0 0 0 0 0 0
          0 0 0 0 0 0
          0 0 0 0 0 0
          0 0 0 0 0 0
          0 0 0 0 0 0
          0 0 0 0 0 0
          0 0 0 0 0 0
          0 0 0 0 0 0
          0 0 0 0 0 0
          0 0 0 0 0 0
          0 0
        </DataArray>
        <DataArray type="Float32" Name="GroupIds" format="ascii" RangeMin="0" RangeMax="0">
          0 0 0 0 0 0
          0 0 0 0 0 0
          0 0 0 0 0 0
          0 0 0 0 0 0
          0 0 0 0 0 0
          0 0 0 0 0 0
          0 0 0 0 0 0
          0 0 0 0 0 0
          0 0 0 0 0 0
          0 0 0 0 0 0
          0 0 0 0 0 0
          0 0 0 0 0 0
          0 0 0 0 0 0
          0 0 0 0 0 0
          0 0 0 0 0 0
          0 0 0 0 0 0
          0 0 0 0 0 0
          0 0 0 0 0 0
          0 0 0 0 0 0
          0 0 0 0 0 0
          0 0 0 0 0 0
          0 0 0 0 0 0
          0 0 0 0 0 0
          0 0 0 0 0 0
          0 0 0 0 0 0
          0 0 0 0 0 0
          0 0 0 0 0 0
          0 0 0 0 0 0
          0 0 0 0 0 0
          0 0 0 0 0 0
          0 0 0 0 0 0
          0 0 0 0 0 0
          0 0 0 0 0 0
          0 0 0 0 0 0
          0 0 0 0 0 0
          0 0 0 0 0 0
          0 0 0 0 0 0
          0 0 0 0 0 0
          0 0 0 0 0 0
          0 0 0 0 0 0
          0 0 0 0 0 0
          0 0 0 0 0 0
          0 0 0 0 0 0
          0 0 0 0 0 0
          0 0 0 0 0 0
          0 0 0 0 0 0
          0 0 0 0 0 0
          0 0 0 0 0 0
          0 0 0 0 0 0
          0 0 0 0 0 0
          0 0 0 0 0 0
          0 0 0 0 0 0
          0 0 0 0 0 0
          0 0 0 0 0 0
          0 0 0 0 0 0
          0 0 0 0 0 0
          0 0 0 0 0 0
          0 0 0 0 0 0
          0 0 0 0 0 0
          0 0 0 0 0 0
          0 0 0 0 0 0
          0 0 0 0 0 0
          0 0 0 0 0 0
          0 0 0 0 0 0
          0 0 0 0 0 0
          0 0 0 0 0 0
          0 0 0 0 0 0
          0 0 0 0 0 0
          0 0 0 0 0 0
          0 0 0 0 0 0
          0 0 0 0 0 0
          0 0 0 0 0 0
          0 0 0 0 0 0
          0 0 0 0 0 0
          0 0 0 0 0 0
          0 0 0 0 0 0
          0 0 0 0 0 0
          0 0 0 0 0 0
          0 0 0 0 0 0
          0 0 0 0 0 0
          0 0 0 0 0 0
          0 0 0 0 0 0
          0 0 0 0 0 0
          0 0 0 0 0 0
          0 0 0 0 0 0
          0 0 0 0 0 0
          0 0 0 0 0 0
          0 0 0 0 0 0
          0 0 0 0 0 0
          0 0 0 0 0 0
          0 0 0 0 0 0
          0 0 0 0 0 0
          0 0 0 0 0 0
          0 0
        </DataArray>
      </CellData>
      <Points>
        <DataArray type="Float32" Name="Points" NumberOfComponents="3" format="ascii" RangeMin="25.28949968310263" RangeMax="32.73275227344459">
          16.91629981994629 17.877300262451172 -15.181500434875488 16.4335994720459 18.21030044555664 -14.824700355529785
          16.388700485229492 17.826000213623047 -15.031299591064453 14.973400115966797 18.6564998626709 -15.690400123596191
          15.442899703979492 18.43090057373047 -16.356800079345703 14.569999694824219 17.651899337768555 -16.195600509643555
          15.067000389099121 16.635700225830078 -16.794599533081055 14.343000411987305 17.18950080871582 -16.180599212646484
          15.3641996383667 17.8257999420166 -16.613000869750977 14.989999771118164 16.475200653076172 -13.886899948120117
          14.778499603271484 16.566099166870117 -13.709699630737305 14.726799964904785 16.133399963378906 -13.957900047302246
          16.013500213623047 19.469499588012695 -15.31760025024414 15.539799690246582 19.450700759887695 -14.956399917602539
          16.230600357055664 19.61910057067871 -14.888699531555176 16.213300704956055 18.67650032043457 -14.333800315856934
          15.418100357055664 18.594499588012695 -13.899100303649902 15.461099624633789 18.2273006439209 -14.041299819946289
          16.555500030517578 17.066999435424805 -16.70170021057129 16.515300750732422 17.390899658203125 -16.91069984436035
          17.048900604248047 17.691299438476562 -16.63050079345703 17.858200073242188 17.99970054626465 -16.081499099731445
          17.601999282836914 18.716699600219727 -16.13409996032715 17.874900817871094 18.442800521850586 -15.735199928283691
          14.944499969482422 17.447399139404297 -14.184100151062012 14.948200225830078 16.913000106811523 -13.869199752807617
          15.369400024414062 15.803000450134277 -16.739500045776367 14.589300155639648 15.771100044250488 -16.22920036315918
          14.424200057983398 16.16699981689453 -16.35099983215332 13.828399658203125 16.060699462890625 -14.854599952697754
          13.863100051879883 16.091100692749023 -15.4753999710083 14.042799949645996 15.659500122070312 -15.363800048828125
          13.926799774169922 17.696500778198242 -14.806500434875488 13.961000442504883 17.805200576782227 -14.980899810791016
          13.855400085449219 17.209999084472656 -14.86989974975586 19.098899841308594 20.837099075317383 -14.70419979095459
          18.293899536132812 20.7091007232666 -14.281399726867676 18.56369972229004 19.829200744628906 -14.004400253295898
          17.72570037841797 19.626399993896484 -14.176199913024902 17.913999557495117 20.039499282836914 -14.416099548339844
          18.175800323486328 19.661800384521484 -14.56719970703125 16.20560073852539 15.985400199890137 -16.359399795532227
          16.006399154663086 16.46969985961914 -15.999099731445312 15.790800094604492 15.9975004196167 -15.810400009155273
          16.53569984436035 17.23349952697754 -16.289600372314453 19.20639991760254 20.402099609375 -14.638400077819824
          18.7908992767334 19.81719970703125 -14.220800399780273 19.118099212646484 20.723800659179688 -15.809000015258789
          18.6875 20.276100158691406 -15.618499755859375 18.577699661254883 20.665199279785156 -15.524999618530273
          17.319599151611328 19.093399047851562 -14.404999732971191 17.546600341796875 18.658199310302734 -14.805800437927246
          17.712600708007812 18.91939926147461 -14.893099784851074 16.730499267578125 19.135400772094727 -13.502799987792969
          16.444599151611328 19.41659927368164 -13.226799964904785 15.938300132751465 19.002500534057617 -13.275199890136719
          14.067299842834473 17.273099899291992 -14.026200294494629 14.18280029296875 17.865699768066406 -13.705699920654297
          14.183699607849121 18.290700912475586 -14.105899810791016 15.26140022277832 19.567699432373047 -13.500900268554688
          15.089200019836426 19.205799102783203 -13.212900161743164 15.910699844360352 19.340099334716797 -13.169699668884277
          16.284700393676758 17.402299880981445 -16.978099822998047 15.639399528503418 16.747499465942383 -17.008100509643555
          15.694600105285645 17.365699768066406 -16.893699645996094 15.619799613952637 19.214099884033203 -15.54069995880127
          15.653200149536133 15.555899620056152 -16.103900909423828 16.07360076904297 15.744099617004395 -16.54450035095215
          14.541000366210938 15.464200019836426 -14.923299789428711 14.840200424194336 15.513899803161621 -15.042900085449219
          14.52929973602295 15.688599586486816 -14.382800102233887 16.520000457763672 18.904399871826172 -13.686100006103516
          15.855600357055664 18.86949920654297 -13.429699897766113 16.354400634765625 18.911500930786133 -14.126700401306152
          17.261199951171875 18.636600494384766 -14.62090015411377 17.189699172973633 18.922399520874023 -14.118300437927246
          16.86210060119629 18.409799575805664 -14.823599815368652 16.680500030517578 17.404699325561523 -15.878999710083008
          17.136899948120117 17.60890007019043 -15.665900230407715 16.37809944152832 17.437299728393555 -15.677599906921387
          15.057900428771973 16.904800415039062 -14.536499977111816 15.187299728393555 16.303199768066406 -15.000399589538574
          13.90310001373291 15.746500015258789 -14.550200462341309 13.526700019836426 16.563800811767578 -14.070300102233887
          13.665800094604492 16.68429946899414 -13.56149959564209 13.734800338745117 17.07710075378418 -13.67020034790039
          16.933900833129883 19.36240005493164 -15.353300094604492 16.761699676513672 19.487899780273438 -15.122900009155273
          17.020999908447266 19.40839958190918 -14.670100212097168 17.16200065612793 19.30739974975586 -13.956600189208984
          14.473600387573242 19.053199768066406 -13.703300476074219 14.419300079345703 19.189800262451172 -13.254500389099121
          14.870699882507324 19.468700408935547 -13.553799629211426 15.209799766540527 19.278900146484375 -14.768199920654297
          18.512399673461914 20.95989990234375 -15.181099891662598 18.610300064086914 21.005199432373047 -14.761799812316895
          19.418399810791016 21.0137996673584 -15.287500381469727 19.907400131225586 20.441600799560547 -15.938899993896484