<?xml version="1.0"?>
<VTKFile type="PolyData" version="0.1" byte_order="LittleEndian" header_type="UInt32" compressor="vtkZLibDataCompressor">
  <PolyData>
    <FieldData>
      <Array type="String" Name="MaterialNames" NumberOfTuples="1" format="ascii">
        109 97 116 101 114 105 97 108 95 48 0
      </Array>
      <Array type="String" Name="MaterialLibraries" NumberOfTuples="1" format="ascii">
        109 97 116 101 114 105 97 108 46 109 116 108 0
      </Array>
    </FieldData>
    <Piece NumberOfPoints="611" NumberOfVerts="0" NumberOfLines="0" NumberOfStrips="0" NumberOfPolys="1209">
      <PointData Normals="Normals">
        <DataArray type="Float32" Name="Normals" NumberOfComponents="3" format="ascii" RangeMin="0.9999307653058302" RangeMax="1.000073462069729">
          -0.6439999938011169 -0.10740000009536743 0.7573999762535095 -0.49950000643730164 -0.14820000529289246 0.853600025177002
          -0.6194999814033508 -0.2572000026702881 0.741599977016449 0.0026000000070780516 0.6021000146865845 -0.7983999848365784
          -0.015699999406933784 0.33629998564720154 -0.9416000247001648 -0.18639999628067017 0.33550000190734863 -0.9233999848365784
          0.2468000054359436 -0.7621999979019165 -0.5985000133514404 -0.09839999675750732 -0.5241000056266785 -0.8460000157356262
          -0.018699999898672104 -0.7674000263214111 -0.6407999992370605 -0.8219000101089478 -0.4668000042438507 0.32659998536109924
          -0.7717000246047974 -0.6276000142097473 0.10320000350475311 -0.8384000062942505 -0.5447999835014343 0.016899999231100082
          0.5755000114440918 0.6459000110626221 0.5016999840736389 0.4724999964237213 0.6080999970436096 0.6378999948501587
          0.670799970626831 0.4652000069618225 0.5776000022888184 0.2946999967098236 0.5421000123023987 -0.786899983882904
          0.32749998569488525 0.6105999946594238 -0.7210999727249146 0.08030000329017639 0.4050000011920929 -0.9107999801635742
          0.3862000107765198 -0.635200023651123 0.6689000129699707 0.5083000063896179 -0.3637000024318695 0.7806000113487244
          0.24819999933242798 -0.32839998602867126 0.9114000201225281 0.988099992275238 -0.034699998795986176 -0.14980000257492065
          0.7791000008583069 -0.13359999656677246 -0.612500011920929 0.9948999881744385 -0.0731000006198883 -0.0697999969124794
          -0.8266000151634216 -0.49889999628067017 0.2603999972343445 -0.7049000263214111 -0.6463000178337097 0.2921999990940094
          -0.7513999938964844 -0.44020000100135803 0.49160000681877136 -0.49880000948905945 0.7437000274658203 0.44519999623298645
          -0.5587999820709229 0.7021999955177307 0.44110000133514404 -0.37869998812675476 0.9253000020980835 0.020899999886751175
          0.31060001254081726 0.5142999887466431 0.7993999719619751 0.3086000084877014 0.2176000028848648 0.9259999990463257
          0.05169999971985817 0.47279998660087585 0.8797000050544739 -0.30809998512268066 0.13729999959468842 0.9413999915122986
          -0.39660000801086426 0.39800000190734863 0.8271999955177307 -0.18870000541210175 0.21979999542236328 0.957099974155426
          0.2013999968767166 0.32510000467300415 -0.9240000247955322 0.1915999948978424 0.965399980545044 -0.17669999599456787
          -0.07760000228881836 0.5764999985694885 -0.8133999705314636 -0.3497999906539917 0.6733999848365784 0.651199996471405
          -0.41679999232292175 0.46720001101493835 0.7797999978065491 -0.21439999341964722 0.4059999883174896 0.8884000182151794
          -0.4397999942302704 0.03150000050663948 -0.8974999785423279 -0.3336000144481659 -0.03750000149011612 -0.9419999718666077
          -0.541700005531311 -0.10869999974966049 -0.8335000276565552 0.6970999836921692 -0.382999986410141 0.6061000227928162
          0.8996000289916992 -0.12780000269412994 0.41749998927116394 0.9574999809265137 -0.2160000056028366 0.19130000472068787
          0.7666000127792358 -0.1665000021457672 -0.620199978351593 0.6758999824523926 0.23600000143051147 -0.698199987411499
          0.5975000262260437 -0.7006999850273132 -0.3898000121116638 0.9810000061988831 0.19370000064373016 0.009800000116229057
          0.7802000045776367 -0.6082000136375427 -0.1462000012397766 0.9340999722480774 -0.24580000340938568 -0.2590999901294708
          0.5835000276565552 -0.20479999482631683 -0.7858999967575073 0.6338000297546387 -0.3269999921321869 -0.7009999752044678
          -0.13339999318122864 0.27140000462532043 0.9531999826431274 0.048900000751018524 0.22990000247955322 0.972000002861023
          0.4133000075817108 -0.2680000066757202 0.8702999949455261 0.37059998512268066 0.1160999983549118 -0.921500027179718
          0.24969999492168427 0.35589998960494995 -0.9004999995231628 0.28610000014305115 0.3961000144481659 -0.8725000023841858
          0.14720000326633453 0.1120000034570694 -0.982699990272522 -0.336899995803833 0.33149999380111694 -0.8812000155448914
          -0.49320000410079956 0.6485999822616577 -0.5796999931335449 -0.24230000376701355 0.7107999920845032 -0.6603999733924866
          -0.44429999589920044 0.5444999933242798 -0.7113999724388123 -0.8808000087738037 0.3019999861717224 -0.36469998955726624
          -0.9581999778747559 0.09830000251531601 -0.2685999870300293 -0.9625999927520752 0.24570000171661377 -0.11429999768733978
          -0.26190000772476196 0.8899999856948853 -0.37310001254081726 -0.3255999982357025 0.8374000191688538 -0.4390000104904175
          -0.3400999903678894 0.802299976348877 -0.49050000309944153 0.6965000033378601 0.6190999746322632 -0.3628000020980835
          0.5157999992370605 0.8224999904632568 -0.23980000615119934 0.542900025844574 0.6636000275611877 -0.5145999789237976
          -0.026100000366568565 0.28369998931884766 0.9585000276565552 -0.1665000021457672 0.16459999978542328 0.9721999764442444
          0.10209999978542328 0.12999999523162842 0.9861999750137329 0.3637000024318695 0.24369999766349792 0.8991000056266785
          0.1979999989271164 0.1316000074148178 0.9713000059127808 0.31619998812675476 0.3513000011444092 0.8812999725341797
          0.843999981880188 -0.2467000037431717 -0.47620001435279846 0.733299970626831 0.636900007724762 -0.2378000020980835
          0.534500002861023 0.8428999781608582 -0.06210000067949295 0.4909999966621399 0.7407000064849854 -0.4586000144481659
          0.5403000116348267 0.12880000472068787 0.83160001039505 0.6134999990463257 0.5432000160217285 0.573199987411499
          0.4603999853134155 0.031199999153614044 0.8871999979019165 0.45249998569488525 -0.6718999743461609 0.5863999724388123
          0.845300018787384 -0.5271000266075134 -0.08760000020265579 0.7789000272750854 -0.25040000677108765 0.574999988079071
          -0.8693000078201294 -0.25279998779296875 0.42480000853538513 -0.9289000034332275 -0.33329999446868896 -0.16169999539852142
          -0.9416000247001648 0.1054999977350235 0.3197999894618988 0.16670000553131104 -0.9559999704360962 0.24130000174045563
          -0.5246000289916992 -0.8510000109672546 -0.024800000712275505 -0.43220001459121704 -0.7196999788284302 0.54339998960495
          0.7989000082015991 0.4449000060558319 0.4047999978065491 0.8780999779701233 0.38100001215934753 -0.28940001130104065
          0.6263999938964844 0.7111999988555908 -0.3190999925136566 0.640999972820282 0.7537999749183655 0.14489999413490295
          0.23240000009536743 0.9718000292778015 -0.041099999099969864 0.11020000278949738 0.9326000213623047 -0.34369999170303345
          0.824400007724762 0.560699999332428 -0.07720000296831131 0.8747000098228455 0.4652999937534332 0.1354999989271164
          0.8385000228881836 -0.12479999661445618 0.5304999947547913 0.7092999815940857 -0.5449000000953674 -0.4472000002861023
          0.8033999800682068 -0.5922999978065491 0.06080000102519989 0.7709000110626221 -0.5899999737739563 -0.23980000615119934
          0.5454999804496765 -0.061000000685453415 -0.8359000086784363 0.7781000137329102 -0.5569000244140625 -0.2904999852180481
          0.7021999955177307 -0.3506999909877777 -0.6195999979972839 0.1979999989271164 -0.4350999891757965 -0.8784000277519226
          0.3756999969482422 -0.8913999795913696 -0.2533999979496002 0.37619999051094055 -0.6589999794960022 -0.6514000296592712
          -0.6570000052452087 -0.38989999890327454 -0.6452000141143799 -0.7756999731063843 -0.25049999356269836 -0.5792999863624573
          -0.5770000219345093 -0.18729999661445618 -0.7949000000953674 -0.1429000049829483 -0.6690999865531921 -0.7293000221252441
          -0.5091000199317932 -0.6284999847412109 -0.588100016117096 -0.003599999938160181 -0.7716000080108643 -0.6360999941825867
          -0.24070000648498535 -0.7404999732971191 -0.6274999976158142 0.39160001277923584 0.9168000221252441 -0.07890000194311142
          0.9621999859809875 0.0722000002861023 -0.26260000467300415 0.9575999975204468 -0.22269999980926514 0.18279999494552612
          0.9000999927520752 -0.4345000088214874 0.030799999833106995 0.8011000156402588 -0.5960000157356262 -0.05389999970793724
          0.6431999802589417 -0.5059000253677368 0.5746999979019165 -0.7063999772071838 0.5444999933242798 0.45239999890327454
          -0.7994999885559082 0.18320000171661377 0.5720000267028809 -0.6793000102043152 0.37599998712539673 0.6302000284194946
          -0.2838999927043915 -0.42809998989105225 0.8579999804496765 -0.43230000138282776 -0.4124000072479248 0.8019000291824341
          -0.30250000953674316 -0.45329999923706055 0.8385000228881836 0.0869000032544136 -0.6079999804496765 -0.7892000079154968
          0.526199996471405 -0.690500020980835 -0.49630001187324524 0.24009999632835388 0.2727999985218048 0.9315999746322632
          -0.09560000151395798 0.039000000804662704 0.994700014591217 -0.06960000097751617 0.19480000436306 0.9783999919891357
          0.22300000488758087 0.9387999773025513 -0.26260000467300415 0.3781000077724457 0.9070000052452087 -0.18559999763965607
          -0.19110000133514404 0.7239000201225281 0.6628999710083008 0.734499990940094 0.6579999923706055 -0.16609999537467957
          0.48559999465942383 0.08399999886751175 -0.8701000213623047 0.1867000013589859 0.32120001316070557 -0.9283999800682068
          0.450300008058548 -0.2612999975681305 -0.8537999987602234 0.7973999977111816 -0.5152999758720398 -0.3140000104904175
          0.5327000021934509 -0.7817000150680542 -0.3244999945163727 0.14079999923706055 -0.4909000098705292 0.8597000241279602
          -0.6363000273704529 0.4106999933719635 -0.652999997138977 -0.41690000891685486 0.5091999769210815 -0.7529000043869019
          -0.49790000915527344 0.2955999970436096 -0.8152999877929688 -0.4205000102519989 0.0632999986410141 -0.9050999879837036
          -0.6226999759674072 0.018200000748038292 -0.7821999788284302 0.267300009727478 0.8828999996185303 0.38609999418258667
          0.5199999809265137 0.819599986076355 0.24040000140666962 0.3684999942779541 0.8151000142097473 0.44699999690055847
          0.8919000029563904 0.3407000005245209 -0.2973000109195709 0.6937000155448914 -0.48330000042915344 -0.5339999794960022
          -0.4916999936103821 0.8435999751091003 0.21559999883174896 -0.6758999824523926 -0.25769999623298645 0.690500020980835
          -0.40630000829696655 -0.14659999310970306 0.9018999934196472 -0.31139999628067017 -0.266400009393692 0.9121999740600586
          0.7910000085830688 -0.3456000089645386 -0.504800021648407 0.8769000172615051 -0.47679999470710754 0.06069999933242798
          0.9383999705314636 -0.3452000021934509 -0.013100000098347664 -0.5101000070571899 0.29789999127388 0.8069000244140625
          -0.5644999742507935 0.31299999356269836 0.763700008392334 -0.22509999573230743 0.2797999978065491 0.9333000183105469
          0.5120999813079834 0.5396999716758728 0.6682000160217285 0.6075000166893005 -0.4375 0.6628999710083008
          0.44290000200271606 0.12890000641345978 0.8873000144958496 -0.00800000037997961 -0.45019999146461487 0.8928999900817871
          -0.6001999974250793 0.7324000000953674 0.321399986743927 -0.4999000132083893 0.6780999898910522 0.5386999845504761
          -0.5698000192642212 0.5498999953269958 -0.6105999946594238 0.6255999803543091 -0.7657999992370605 -0.14890000224113464
          -0.885200023651123 -0.38109999895095825 -0.26669999957084656 -0.5529000163078308 -0.4763999879360199 -0.6836000084877014
          0.4212000072002411 0.1809999942779541 -0.888700008392334 0.3393000066280365 0.16990000009536743 -0.9251999855041504
          0.05510000139474869 -0.45660001039505005 -0.8878999948501587 0.7300000190734863 -0.028999999165534973 -0.6829000115394592
          0.3874000012874603 0.29109999537467957 0.8748000264167786 0.4925999939441681 0.30059999227523804 0.8166999816894531
          0.8057000041007996 0.3140000104904175 0.5022000074386597 0.29840001463890076 0.679099977016449 -0.6705999970436096
          0.39070001244544983 0.89410001039505 -0.2190999984741211 0.5397999882698059 0.7896000146865845 -0.29170000553131104
          -0.9606000185012817 -0.21549999713897705 0.17560000717639923 -0.925000011920929 0.02590000070631504 0.3790999948978424
          -0.7712000012397766 -0.3034000098705292 0.5595999956130981 -0.7921000123023987 -0.05139999836683273 -0.6082000136375427
          -0.8482999801635742 0.14149999618530273 -0.5102999806404114 -0.9226999878883362 -0.09769999980926514 -0.37290000915527344
          -0.020500000566244125 -0.9896000027656555 0.14249999821186066 0.5501999855041504 0.8184999823570251 0.16539999842643738
          -0.6398000121116638 0.36820000410079956 0.6746000051498413 0.44519999623298645 0.8804000020027161 -0.16369999945163727
          0.5701000094413757 0.8141999840736389 0.11020000278949738 -0.23360000550746918 0.03889999911189079 0.9714999794960022
          0.7347000241279602 0.03220000118017197 0.6776000261306763 0.9850000143051147 0.1728000044822693 0.0013000000035390258
          0.4007999897003174 -0.5342000126838684 -0.7443000078201294 0.8589000105857849 -0.5005999803543091 -0.10859999805688858
          -0.03229999914765358 -0.4593999981880188 0.8876000046730042 -0.10520000010728836 -0.14890000224113464 0.9832000136375427
          0.2766000032424927 -0.4316999912261963 0.8586000204086304 0.21359999477863312 0.026399999856948853 0.9765999913215637
          0.1264999955892563 0.07039999961853027 0.9894999861717224 0.1454000025987625 0.028699999675154686 0.9890000224113464
          0.4634999930858612 0.007000000216066837 0.8860999941825867 0.10329999774694443 0.14380000531673431 0.9842000007629395
          -0.6592000126838684 -0.682200014591217 -0.31630000472068787 -0.968999981880188 -0.05739999935030937 -0.2401999980211258
          -0.9093999862670898 -0.2702000141143799 0.31619998812675476 0.046799998730421066 -0.9430000185966492 0.3296000063419342
          -0.05260000005364418 -0.8398000001907349 0.5403000116348267 -0.46779999136924744 -0.5367000102996826 0.7021999955177307
          0.8004000186920166 -0.5874999761581421 0.11900000274181366 0.5350000262260437 -0.8398000001907349 -0.09229999780654907
          0.20350000262260437 0.9480999708175659 -0.2443999946117401 0.9606999754905701 0.1808999925851822 -0.21070000529289246
          0.8432000279426575 0.5058000087738037 0.18219999969005585 -0.8385000228881836 0.014700000174343586 -0.544700026512146
          -0.7032999992370605 -0.35510000586509705 -0.6158000230789185 -0.902400016784668 -0.2125999927520752 -0.37470000982284546
          -0.7906000018119812 -0.40700000524520874 -0.45750001072883606 -0.24539999663829803 0.8325999975204468 -0.4964999854564667
          0.49059998989105225 0.6018000245094299 -0.6302000284194946 0.6536999940872192 0.5565999746322632 -0.5127000212669373
          0.7649000287055969 0.4032999873161316 -0.5022000074386597 0.7993999719619751 -0.16539999842643738 0.5776000022888184
          0.8593000173568726 -0.4794999957084656 -0.1777999997138977 0.7784000039100647 0.05220000073313713 0.6255999803543091
          0.8758999705314636 0.34689998626708984 0.3353999853134155 0.5313000082969666 -0.09160000085830688 -0.842199981212616
          0.25929999351501465 -0.7656999826431274 -0.5885999798774719 0.21739999949932098 -0.210099995136261 -0.9531999826431274
          0.2379000037908554 -0.5694000124931335 -0.786899983882904 -0.10080000013113022 0.05829999968409538 -0.9932000041007996
          -0.1096000000834465 -0.0430000014603138 -0.9929999709129333 -0.29170000553131104 0.15860000252723694 -0.9433000087738037
          -0.9990000128746033 -0.009100000374019146 -0.04470000043511391 -0.9431999921798706 -0.3190999925136566 0.09229999780654907
          -0.07569999992847443 0.8256000280380249 0.5591999888420105 0.5185999870300293 0.8277999758720398 0.21410000324249268
          0.44620001316070557 -0.6072999835014343 0.6572999954223633 -0.6128000020980835 0.020099999383091927 0.7900000214576721
          -0.7249000072479248 -0.38019999861717224 0.574400007724762 -0.545799970626831 0.23100000619888306 0.805400013923645
          -0.3472000062465668 0.03530000150203705 0.9370999932289124 -0.5536999702453613 0.08190000057220459 0.8287000060081482
          -0.48910000920295715 0.052799999713897705 0.8705999851226807 -0.8317000269889832 0.09600000083446503 0.5468999743461609
          -0.7979000210762024 0.0203000009059906 0.6025000214576721 -0.41290000081062317 0.2078000009059906 0.8866999745368958
          -0.424699991941452 0.034299999475479126 0.904699981212616 -0.04910000041127205 0.00139999995008111 0.9987999796867371
          -0.12880000472068787 0.023499999195337296 0.9914000034332275 -0.1111999973654747 -0.18230000138282776 0.9768999814987183
          0.31209999322891235 0.9329000115394592 -0.17949999868869781 -0.46970000863075256 0.8823000192642212 0.02979999966919422
          -0.7688999772071838 -0.2856000065803528 -0.5720000267028809 -0.777999997138977 -0.45809999108314514 -0.42989999055862427
          -0.6567999720573425 -0.3012999892234802 -0.6912000179290771 -0.28369998931884766 -0.2289000004529953 -0.9312000274658203
          -0.3037000000476837 -0.24950000643730164 -0.9194999933242798 0.9528999924659729 0.2892000079154968 -0.09179999679327011
          0.7379000186920166 0.6209999918937683 -0.26440000534057617 0.7271999716758728 0.666700005531311 0.16349999606609344
          0.713100016117096 0.6996999979019165 -0.04270000010728836 0.3765999972820282 0.6601999998092651 0.6499000191688538
          0.6692000031471252 -0.738099992275238 -0.08630000054836273 0.6816999912261963 -0.7233999967575073 -0.10909999907016754
          0.7422000169754028 -0.5511999726295471 -0.38119998574256897 0.8360000252723694 -0.35249999165534973 0.4205999970436096
          -0.641700029373169 0.6589999794960022 -0.392300009727478 -0.739799976348877 0.5157999992370605 -0.4320000112056732
          -0.7671999931335449 0.618399977684021 -0.17020000517368317 -0.8895999789237976 0.41190001368522644 -0.19740000367164612
          0.01590000092983246 -0.9830999970436096 0.18219999969005585 0.6700999736785889 -0.16439999639987946 -0.723800003528595
          0.6391000151634216 -0.5548999905586243 -0.5325000286102295 0.3637000024318695 -0.3465000092983246 -0.8647000193595886
          -0.3400000035762787 -0.47940000891685486 0.8090999722480774 -0.15060000121593475 -0.31459999084472656 0.9372000098228455
          -0.24650000035762787 -0.7886000275611877 0.5633000135421753 -0.7268999814987183 -0.23800000548362732 0.64410001039505
          -0.5958999991416931 0.7955999970436096 -0.10939999669790268 -0.21469999849796295 0.5503000020980835 -0.8069000244140625
          0.6656000018119812 0.19099999964237213 -0.7214000225067139 0.6175000071525574 0.7723000049591064 -0.14910000562667847
          0.6309000253677368 0.5565999746322632 0.5404999852180481 0.1785999983549118 0.6208999752998352 -0.7631999850273132
          0.3398999869823456 0.5733000040054321 -0.7455000281333923 0.3785000145435333 0.3003999888896942 -0.8755000233650208
          -0.995199978351593 0.01549999974668026 -0.09640000015497208 -0.9986000061035156 0.052799999713897705 -0.0052999998442828655
          -0.9900000095367432 -0.050200000405311584 0.1316000074148178 0.4230000078678131 0.8977000117301941 0.12309999763965607
          -0.17890000343322754 0.8319000005722046 0.5253000259399414 0.4702000021934509 0.6744999885559082 0.5691999793052673
          -0.40939998626708984 0.8910999894142151 0.19589999318122864 -0.7329000234603882 -0.11420000344514847 -0.6707000136375427
          -0.7617999911308289 0.10970000177621841 -0.6384000182151794 -0.46160000562667847 -0.32429999113082886 -0.8256999850273132
          -0.1720999926328659 -0.7257000207901001 -0.6661999821662903 -0.5963000059127808 -0.7810999751091003 0.18529999256134033
          0.02630000002682209 -0.06790000200271606 -0.9973000288009644 0.3407000005245209 0.6194000244140625 -0.7073000073432922
          0.15189999341964722 -0.021199999377131462 0.9882000088691711 -0.5612999796867371 -0.7979999780654907 0.21930000185966492
          -0.7681000232696533 -0.6230999827384949 0.14720000326633453 -0.9779999852180481 -0.14949999749660492 0.1453000009059906
          -0.5430999994277954 0.29840001463890076 0.7847999930381775 -0.34040001034736633 -0.9390000104904175 -0.0494999997317791
          0.3605000078678131 -0.9132000207901001 -0.1899999976158142 0.8568999767303467 -0.337799996137619 -0.38940000534057617
          -0.3580000102519989 0.19990000128746033 -0.9121000170707703 0.3537999987602234 0.7315999865531921 0.5827000141143799
          0.3684000074863434 0.8695999979972839 0.3287999927997589 0.4259999990463257 0.40689998865127563 -0.8080999851226807
          0.3158000111579895 0.5056999921798706 -0.8027999997138977 -0.30309998989105225 0.37720000743865967 -0.8751000165939331
          -0.24300000071525574 0.05180000141263008 -0.9685999751091003 -0.5187000036239624 -0.4131999909877777 0.7484999895095825
          -0.6854000091552734 -0.3549000024795532 0.6358000040054321 -0.5867000222206116 -0.3720000088214874 0.7193999886512756
          0.4902999997138977 0.4327000081539154 -0.756600022315979 0.40130001306533813 0.2558000087738037 -0.8794999718666077
          0.7513999938964844 -0.054499998688697815 0.6577000021934509 0.18690000474452972 0.7271000146865845 -0.6606000065803528
          0.5246000289916992 0.26600000262260437 -0.8087999820709229 0.7958999872207642 0.5654000043869019 -0.21660000085830688
          0.3846000134944916 0.3402000069618225 -0.8580999970436096 0.9987000226974487 0.0284000001847744 -0.041600000113248825
          0.8561000227928162 0.07909999787807465 -0.510699987411499 0.9871000051498413 -0.1590999960899353 -0.015699999406933784
          0.5238000154495239 0.833899974822998 -0.17389999330043793 0.8274999856948853 0.4514999985694885 -0.33390000462532043
          0.6294999718666077 0.690500020980835 -0.3564000129699707 0.9764000177383423 0.12939999997615814 0.17270000278949738
          0.7160999774932861 -0.398499995470047 0.5730999708175659 0.23109999299049377 -0.3285999894142151 0.9157000184059143
          -0.6509000062942505 -0.6870999932289124 0.3228999972343445 -0.0044999998062849045 -0.9496999979019165 0.31310001015663147
          -0.03830000013113022 -0.9990000128746033 -0.025100000202655792 0.9381999969482422 0.34060001373291016 0.06199999898672104
          0.8780999779701233 -0.478300005197525 0.012799999676644802 0.5552999973297119 -0.7390000224113464 -0.3813999891281128
          0.7182000279426575 -0.3878999948501587 -0.5776000022888184 0.8791000247001648 -0.47620001435279846 0.021900000050663948
          -0.39329999685287476 0.8752999901771545 -0.2815000116825104 -0.27810001373291016 0.9171000123023987 -0.2854999899864197
          -0.5074999928474426 0.7768999934196472 -0.3727000057697296 -0.6603999733924866 0.7390000224113464 -0.13339999318122864
          -0.6875 0.7257000207901001 -0.024700000882148743 0.32829999923706055 0.6452999711036682 0.6898000240325928
          0.5942000150680542 0.7195000052452087 -0.359499990940094 0.8317000269889832 0.21469999849796295 0.5120999813079834
          -0.4828999936580658 -0.15649999678134918 0.8615999817848206 -0.4950000047683716 -0.1673000007867813 0.8525999784469604
          -0.3864000141620636 -0.16990000009536743 0.906499981880188 -0.33899998664855957 0.05530000105500221 0.9391999840736389
          -0.23029999434947968 -0.13660000264644623 0.9635000228881836 -0.39649999141693115 -0.12530000507831573 0.909500002861023
          0.6165000200271606 -0.7513999938964844 -0.2353000044822693 -0.8801000118255615 -0.2655999958515167 0.3935999870300293
          -0.6819999814033508 -0.3467999994754791 0.6438999772071838 -0.8921999931335449 -0.2623000144958496 0.3677999973297119
          -0.9925000071525574 -0.09830000251531601 0.07270000129938126 0.722000002861023 -0.6575999855995178 -0.2152000069618225
          0.7713000178337097 -0.483599990606308 -0.4138000011444092 0.3224000036716461 -0.6065000295639038 -0.7268000245094299
          0.560699999332428 -0.6927000284194946 -0.4537000060081482 0.9896000027656555 -0.11909999698400497 -0.08020000159740448
          0.8116000294685364 -0.5676000118255615 -0.13809999823570251 0.9562000036239624 -0.06620000302791595 0.28529998660087585
          0.7712000012397766 0.42500001192092896 0.4740000069141388 -0.8349999785423279 -0.4359999895095825 -0.3357999920845032
          -0.8587999939918518 -0.5108000040054321 -0.03790000081062317 -0.7735000252723694 -0.5195000171661377 -0.3630000054836273
          -0.7928000092506409 -0.5810999870300293 -0.18400000035762787 -0.2459000051021576 0.1492999941110611 0.9577000141143799
          0.5131999850273132 0.8457000255584717 -0.1462000012397766 0.507099986076355 0.5817999839782715 0.6359000205993652
          0.5461000204086304 -0.5436000227928162 -0.6373999714851379 0.5238000154495239 -0.4950000047683716 -0.6933000087738037
          0.7547000050544739 0.5871000289916992 -0.29269999265670776 0.8628000020980835 0.2687999904155731 -0.42829999327659607
          0.9993000030517578 -0.03840000182390213 -0.00039999998989515007 0.4702000021934509 -0.44449999928474426 0.762499988079071
          0.05590000003576279 0.10409999638795853 0.9929999709129333 0.2615000009536743 0.08079999685287476 0.9617999792098999
          0.5860999822616577 -0.2632000148296356 0.7663000226020813 0.15299999713897705 -0.0071000000461936 -0.9882000088691711
          0.11990000307559967 0.2502000033855438 -0.9606999754905701 -0.08169999718666077 0.2535000145435333 -0.9639000296592712
          -0.14339999854564667 -0.6653000116348267 0.732699990272522 0.40950000286102295 -0.29089999198913574 0.8647000193595886
          0.8032000064849854 0.4893999993801117 -0.33959999680519104 0.9228000044822693 0.049400001764297485 -0.382099986076355
          0.7366999983787537 0.22390000522136688 0.6380000114440918 0.9107999801635742 0.1362999975681305 0.38960000872612
          0.10320000350475311 -0.9945999979972839 0.007499999832361937 -0.7605000138282776 -0.6360999941825867 -0.13019999861717224
          -0.08579999953508377 0.855400025844574 -0.5108000040054321 -0.0786999985575676 0.7587000131607056 -0.6467000246047974
          0.34790000319480896 0.6523000001907349 -0.6733999848365784 -0.2709999978542328 0.9376999735832214 -0.2175000011920929
          -0.40549999475479126 0.8539000153541565 -0.3262999951839447 -0.8482999801635742 -0.23319999873638153 0.47540000081062317
          -0.9670000076293945 -0.1860000044107437 0.17409999668598175 -0.9376999735832214 -0.3472999930381775 0.005400000140070915
          -0.9843000173568726 -0.08089999854564667 -0.1565999984741211 -0.9052000045776367 -0.2070000022649765 -0.37130001187324524
          -0.16760000586509705 0.19740000367164612 -0.9659000039100647 -0.2847000062465668 0.4036000072956085 -0.8694999814033508
          -0.15150000154972076 0.1860000044107437 -0.97079998254776 -0.2809000015258789 -0.02669999934732914 -0.9593999981880188
          -0.3813000023365021 -0.19460000097751617 -0.9036999940872192 0.10320000350475311 0.1289999932050705 0.986299991607666
          0.15680000185966492 0.5321999788284302 0.8320000171661377 -0.03620000183582306 0.6850000023841858 0.7275999784469604
          0.5220000147819519 0.5960000157356262 0.6101999878883362 0.43050000071525574 -0.7010999917984009 -0.5684999823570251
          0.19200000166893005 -0.5863000154495239 -0.7870000004768372 0.42570000886917114 -0.41040000319480896 -0.8064000010490417
          -0.005400000140070915 -0.8271999955177307 -0.5619000196456909 -0.05400000140070915 -0.9848999977111816 0.1647000014781952
          -0.44530001282691956 -0.052000001072883606 -0.8938999772071838 -0.5429999828338623 -0.16419999301433563 -0.8234999775886536
          -0.20399999618530273 -0.08229999989271164 0.9754999876022339 0.8234000205993652 0.02290000021457672 0.5670999884605408
          0.579200029373169 0.6474999785423279 0.4952999949455261 0.6840999722480774 -0.09080000221729279 -0.7236999869346619
          0.7472000122070312 -0.09160000085830688 -0.6582000255584717 0.7095999717712402 -0.04280000180006027 -0.7032999992370605
          0.9296000003814697 0.07360000163316727 -0.3610999882221222 -0.5921000242233276 -0.0284000001847744 0.805400013923645
          -0.6241999864578247 0.21930000185966492 0.7498000264167786 0.17649999260902405 -0.4609000086784363 -0.869700014591217
          0.3310000002384186 -0.8587999939918518 -0.39100000262260437 0.2669999897480011 -0.7053999900817871 -0.6565999984741211
          0.27000001072883606 -0.018300000578165054 -0.9627000093460083 -0.8600999712944031 -0.15649999678134918 -0.48559999465942383
          0.848800003528595 0.35440000891685486 -0.39239999651908875 0.17309999465942383 -0.6582000255584717 0.732699990272522
          0.36899998784065247 -0.8230000138282776 0.4318000078201294 -0.2745000123977661 -0.06260000169277191 0.9595999717712402
          0.6139000058174133 0.5856999754905701 0.52920001745224 0.149399995803833 0.38989999890327454 0.9085999727249146