<?xml version="1.0"?>
<VTKFile type="PolyData" version="0.1" byte_order="LittleEndian" header_type="UInt32" compressor="vtkZLibDataCompressor">
  <PolyData>
    <FieldData>
      <Array type="String" Name="MaterialNames" NumberOfTuples="1" format="ascii">
        109 97 116 101 114 105 97 108 95 48 0
      </Array>
      <Array type="String" Name="MaterialLibraries" NumberOfTuples="1" format="ascii">
        109 97 116 101 114 105 97 108 46 109 116 108 0
      </Array>
    </FieldData>
    <Piece NumberOfPoints="599" NumberOfVerts="0" NumberOfLines="0" NumberOfStrips="0" NumberOfPolys="1147">
      <PointData Normals="Normals">
        <DataArray type="Float32" Name="Normals" NumberOfComponents="3" format="ascii" RangeMin="0.9999296382002583" RangeMax="1.0000736935583714">
          0.7685999870300293 -0.27459999918937683 0.5777999758720398 0.7811999917030334 -0.0940999984741211 0.6171000003814697
          0.7351999878883362 0.03350000083446503 0.6769999861717224 -0.40849998593330383 0.8184000253677368 0.4041999876499176
          -0.5217999815940857 0.823199987411499 0.22370000183582306 -0.5824000239372253 0.8055999875068665 0.10890000313520432
          -0.295199990272522 0.6905999779701233 -0.6601999998092651 -0.22550000250339508 0.5144000053405762 -0.8274000287055969
          -0.5311999917030334 0.5270000100135803 -0.6633999943733215 0.6919000148773193 -0.3716000020503998 0.6190000176429749
          0.621399998664856 -0.7016000151634216 0.34880000352859497 0.4562999904155731 -0.6714000105857849 0.5839999914169312
          0.3862000107765198 -0.8819000124931335 -0.2703000009059906 0.4925000071525574 -0.8252999782562256 -0.27630001306533813
          0.17030000686645508 -0.7534000277519226 -0.635200023651123 0.941100001335144 -0.03290000185370445 -0.33649998903274536
          0.9695000052452087 0.16539999842643738 -0.18070000410079956 0.9851999878883362 -0.16590000689029694 -0.04439999908208847
          -0.9426000118255615 0.33329999446868896 -0.022099999710917473 -0.8819000124931335 0.45890000462532043 -0.1080000028014183
          -0.8708000183105469 0.4846000075340271 0.08340000361204147 -0.5957000255584717 0.06710000336170197 -0.8004000186920166
          -0.5996999740600586 -0.1023000031709671 -0.7936000227928162 -0.5047000050544739 -0.1565999984741211 -0.8489999771118164
          -0.9449999928474426 0.3156999945640564 -0.0851999968290329 -0.9265999794006348 0.07240000367164612 0.36890000104904175
          -0.9248999953269958 0.3774999976158142 0.04490000009536743 0.6351000070571899 -0.7339000105857849 0.2410999983549118
          0.6370000243186951 -0.7675999999046326 0.07100000232458115 0.657800018787384 -0.7089999914169312 0.25429999828338623
          0.17299999296665192 0.6657999753952026 -0.7257999777793884 0.6007000207901001 0.6474999785423279 -0.4690000116825104
          0.41830000281333923 0.4839000105857849 -0.7687000036239624 -0.2646999955177307 0.8519999980926514 0.45179998874664307
          -0.10949999839067459 0.8744999766349792 0.4726000130176544 -0.36980000138282776 0.7870000004768372 0.49390000104904175
          0.8011000156402588 -0.4950999915599823 0.33629998564720154 0.8223999738693237 -0.009200000204145908 0.5687999725341797
          0.8676999807357788 -0.17839999496936798 0.46389999985694885 0.17890000343322754 -0.8973000049591064 0.4034999907016754
          0.3003999888896942 -0.9351999759674072 0.1873999983072281 0.22370000183582306 -0.9430999755859375 0.2459000051021576
          0.7501000165939331 -0.19550000131130219 0.6316999793052673 0.590499997138977 -0.23100000619888306 0.7731999754905701
          0.506600022315979 -0.5378999710083008 0.673799991607666 0.8300999999046326 0.5575000047683716 0.008100000210106373
          0.7250999808311462 0.651199996471405 0.22419999539852142 0.8439000248908997 0.5360000133514404 0.02370000071823597
          -0.4449000060558319 -0.5562999844551086 -0.7017999887466431 -0.454800009727478 -0.5108000040054321 -0.7296000123023987
          -0.16750000417232513 -0.6535999774932861 -0.738099992275238 -0.5292999744415283 0.44369998574256897 0.7232000231742859
          -0.44670000672340393 0.23029999434947968 0.8644999861717224 -0.263700008392334 -0.10599999874830246 0.9587000012397766
          -0.27379998564720154 0.7310000061988831 0.625 -0.6394000053405762 0.7591999769210815 0.1216999962925911
          -0.607200026512146 0.7828999757766724 0.1354999989271164 -0.7301999926567078 0.367900013923645 -0.5756999850273132
          -0.7235000133514404 0.36559998989105225 -0.5856000185012817 -0.7229999899864197 0.4309000074863434 -0.539900004863739
          0.4546999931335449 -0.4269999861717224 -0.7815999984741211 0.45179998874664307 -0.5490000247955322 -0.7031999826431274
          0.34150001406669617 -0.5428000092506409 -0.767300009727478 -0.7771000266075134 -0.003800000064074993 -0.6294000148773193
          -0.7260000109672546 -0.03709999844431877 -0.6866000294685364 -0.7221999764442444 0.11060000211000443 -0.6827999949455261
          0.17560000717639923 -0.853600025177002 -0.49050000309944153 -0.36469998955726624 -0.23810000717639923 -0.9002000093460083
          -0.5874000191688538 -0.49810001254081726 -0.6377999782562256 0.9035999774932861 -0.40869998931884766 -0.12800000607967377
          0.6521999835968018 -0.5181999802589417 -0.5532000064849854 0.5807999968528748 -0.7883999943733215 -0.2029000073671341
          -0.8734999895095825 0.33000001311302185 0.3578999936580658 -0.8859999775886536 0.43529999256134033 0.15950000286102295
          -0.8669999837875366 0.4494999945163727 0.21490000188350677 0.03200000151991844 0.7017999887466431 0.7117000222206116
          0.04450000077486038 0.314300000667572 0.9483000040054321 0.40779998898506165 -0.0003000000142492354 0.913100004196167
          0.6452000141143799 -0.7107999920845032 0.2802000045776367 0.7307999730110168 -0.5343000292778015 0.42480000853538513
          0.45579999685287476 -0.4900999963283539 0.7429999709129333 0.07119999825954437 -0.6947000026702881 0.7157999873161316
          -0.10339999943971634 -0.6693999767303467 0.7357000112533569 -0.17419999837875366 -0.7820000052452087 0.5985000133514404
          0.335099995136261 -0.9182000160217285 0.2110999971628189 0.4138000011444092 -0.9089999794960022 0.050200000405311584
          0.5722000002861023 -0.7810999751091003 -0.25 0.5248000025749207 -0.5078999996185303 -0.6830999851226807
          0.725600004196167 0.18469999730587006 -0.6628999710083008 0.8014000058174133 0.18520000576972961 -0.5687999725341797
          0.8479999899864197 0.07909999787807465 -0.5241000056266785 -0.35429999232292175 -0.8916000127792358 -0.28189998865127563
          -0.5644000172615051 -0.795199990272522 0.2215999960899353 -0.03280000016093254 -0.991100013256073 0.12919999659061432
          0.8468000292778015 -0.4189000129699707 0.3276999890804291 0.7250999808311462 -0.445499986410141 0.5250999927520752
          0.8252999782562256 -0.24619999527931213 0.5081999897956848 0.7318999767303467 0.023000000044703484 0.6809999942779541
          0.7572000026702881 -0.09719999879598618 0.6459000110626221 -0.9150000214576721 0.3790000081062317 -0.13840000331401825
          -0.9045000076293945 0.2669999897480011 -0.3325999975204468 -0.8689000010490417 0.47269999980926514 0.1468999981880188
          -0.40220001339912415 -0.051100000739097595 -0.9140999913215637 -0.48980000615119934 -0.02710000053048134 -0.871399998664856
          -0.3513999879360199 -0.13379999995231628 -0.9265999794006348 0.4097000062465668 0.4235000014305115 0.8080000281333923
          0.23149999976158142 0.7547000050544739 0.6137999892234802 0.15880000591278076 0.8662999868392944 0.47369998693466187
          0.027400000020861626 0.9307000041007996 0.36480000615119934 0.5278000235557556 -0.6355000138282776 0.5634999871253967
          0.7149999737739563 -0.39100000262260437 0.5795999765396118 0.5945000052452087 -0.4101000130176544 0.6916000247001648
          -0.27230000495910645 -0.4043999910354614 0.8730999827384949 -0.002099999925121665 -0.5918999910354614 0.8059999942779541
          -0.7200999855995178 0.6740999817848206 -0.16439999639987946 -0.7817000150680542 0.6234999895095825 -0.01119999960064888
          -0.5799999833106995 0.8026999831199646 -0.1386999934911728 -0.640500009059906 0.7541000247001648 -0.14499999582767487
          0.5789999961853027 0.7616000175476074 -0.29100000858306885 0.576200008392334 0.6952000260353088 -0.42980000376701355
          0.3815000057220459 0.704200029373169 -0.598800003528595 -0.24709999561309814 0.9064000248908997 0.3425999879837036
          -0.26440000534057617 0.8353000283241272 0.4819999933242798 -0.12049999833106995 0.8525000214576721 0.5087000131607056
          -0.5918999910354614 0.15449999272823334 -0.791100025177002 -0.7770000100135803 -0.1670999974012375 -0.6068999767303467
          -0.5604000091552734 0.5259000062942505 -0.6398000121116638 -0.42289999127388 0.30559998750686646 -0.8531000018119812
          0.7429999709129333 -0.0348999984562397 -0.6682999730110168 0.8646000027656555 0.40779998898506165 -0.2937000095844269
          0.8492000102996826 0.5034999847412109 -0.15929999947547913 0.963699996471405 0.2565999925136566 0.07360000163316727
          0.6690000295639038 0.7123000025749207 0.21220000088214874 0.8159999847412109 0.5647000074386597 0.12370000034570694
          0.8561999797821045 0.17309999465942383 0.48669999837875366 0.8346999883651733 0.49380001425743103 0.24390000104904175
          0.9171000123023987 0.026000000536441803 0.3977000117301941 0.7980999946594238 -0.5950000286102295 0.09430000185966492
          0.6700999736785889 -0.7071999907493591 0.22550000250339508 0.5964000225067139 -0.1623000055551529 0.7860999703407288
          0.5587999820709229 -0.6678000092506409 -0.4916999936103821 0.5745000243186951 -0.7213000059127808 0.3869999945163727
          0.6751999855041504 -0.5566999912261963 0.4839000105857849 0.6912000179290771 -0.5896999835968018 0.41769999265670776
          0.4993000030517578 -0.8557000160217285 0.13570000231266022 0.3190999925136566 -0.932200014591217 0.17059999704360962
          -0.1436000019311905 -0.33889999985694885 -0.9297999739646912 -0.5511999726295471 0.07490000128746033 -0.8309999704360962
          -0.302700012922287 -0.16249999403953552 -0.9391999840736389 -0.5396999716758728 -0.4641000032424927 -0.7024000287055969
          -0.6884999871253967 -0.15860000252723694 -0.7075999975204468 0.0812000036239624 -0.11649999767541885 0.9898999929428101
          0.35249999165534973 -0.016899999231100082 0.935699999332428 -0.22830000519752502 -0.2896000146865845 0.9294999837875366
          0.519599974155426 -0.8514999747276306 0.07010000199079514 0.8335000276565552 -0.5504000186920166 0.047600001096725464
          0.45879998803138733 -0.8583999872207642 -0.22930000722408295 0.8131999969482422 -0.28200000524520874 0.5091000199317932
          0.8804000020027161 -0.1615999937057495 0.4458000063896179 0.6890000104904175 -0.27790001034736633 0.6693000197410583
          -0.8059999942779541 -0.006399999838322401 0.5918999910354614 0.3522999882698059 -0.8478999733924866 0.3962000012397766
          0.1362999975681305 -0.9114999771118164 0.3880000114440918 -0.08529999852180481 -0.7501000165939331 0.6557999849319458
          0.6775000095367432 -0.6883999705314636 0.258899986743927 0.612500011920929 -0.7888000011444092 0.051500000059604645
          -0.3165999948978424 0.09610000252723694 -0.9437000155448914 -0.38659998774528503 -0.02810000069439411 -0.9218000173568726
          -0.5728999972343445 0.2777999937534332 -0.7710999846458435 -0.7142000198364258 0.34369999170303345 -0.6097000241279602
          -0.6823999881744385 0.40119999647140503 -0.6110000014305115 -0.5462999939918518 0.19900000095367432 -0.8136000037193298
          -0.7547000050544739 0.5583000183105469 0.34450000524520874 -0.8054999709129333 0.4977000057697296 0.32179999351501465
          -0.5454999804496765 0.6593000292778015 0.5174000263214111 -0.508899986743927 0.725600004196167 0.46320000290870667
          -0.4648999869823456 0.7247999906539917 0.508400022983551 0.3000999987125397 0.9218999743461609 0.24490000307559967
          0.321399986743927 0.9467999935150146 0.01720000058412552 0.07090000063180923 0.9484999775886536 0.30880001187324524
          0.6118999719619751 0.6940000057220459 0.37929999828338623 0.5497000217437744 0.7896000146865845 0.2727999985218048
          0.8356000185012817 -0.5418999791145325 0.09040000289678574 0.8287000060081482 -0.4025000035762787 0.3889999985694885
          0.7211999893188477 -0.6830999851226807 -0.11550000309944153 -0.6941999793052673 0.3862000107765198 0.6074000000953674
          -0.7488999962806702 0.5785999894142151 0.323199987411499 -0.5640000104904175 0.20499999821186066 0.7998999953269958
          0.6172000169754028 -0.5842999815940857 0.5270000100135803 0.5917999744415283 -0.14300000667572021 0.7932999730110168
          0.5020999908447266 -0.4027999937534332 0.7652999758720398 -0.9136999845504761 0.10369999706745148 -0.3928000032901764
          -0.9370999932289124 0.28690001368522644 -0.1987999975681305 -0.9660000205039978 0.16599999368190765 -0.19820000231266022
          -0.8676000237464905 0.17339999973773956 -0.4659999907016754 0.6644999980926514 -0.04800000041723251 0.7457000017166138
          0.8252999782562256 -0.26579999923706055 0.4982999861240387 0.5501000285148621 0.24279999732971191 0.7990000247955322
          0.5063999891281128 -0.38609999418258667 0.7710000276565552 0.4115000069141388 -0.2443999946117401 0.878000020980835
          0.22450000047683716 0.30640000104904175 0.9251000285148621 0.22220000624656677 0.8738999962806702 0.43230000138282776
          0.4794999957084656 0.8371999859809875 0.2628999948501587 0.1754000037908554 0.8718000054359436 0.45739999413490295
          0.772599995136261 0.48240000009536743 0.41260001063346863 0.701200008392334 0.5906000137329102 0.399399995803833
          0.7777000069618225 0.374099999666214 0.505299985408783 0.7653999924659729 0.20080000162124634 0.6114000082015991
          0.7771000266075134 0.12359999865293503 0.6171000003814697 0.7789999842643738 0.1152999997138977 0.6162999868392944
          0.7817000150680542 -0.11779999732971191 0.6123999953269958 0.7386999726295471 -0.005799999926239252 0.6740000247955322
          -0.01759999990463257 0.9857000112533569 0.16769999265670776 0.3546999990940094 0.810699999332428 0.4657999873161316
          -0.2273000031709671 0.9690999984741211 0.09589999914169312 -0.41749998927116394 0.9054999947547913 -0.07670000195503235
          -0.36660000681877136 0.9301000237464905 0.022099999710917473 -0.1543000042438507 0.10790000110864639 0.9821000099182129
          0.2409999966621399 -0.5867999792098999 0.7730000019073486 -0.43389999866485596 -0.28439998626708984 0.8549000024795532
          -0.43070000410079956 0.7437999844551086 -0.5110999941825867 -0.7360000014305115 0.6116999983787537 -0.28999999165534973
          -0.6256999969482422 0.2890999913215637 -0.7245000004768372 -0.5641999840736389 -0.008700000122189522 -0.8256000280380249
          0.8208000063896179 0.3506999909877777 0.45089998841285706 0.10859999805688858 0.9624999761581421 -0.2485000044107437
          -0.05310000106692314 0.5264999866485596 -0.8485000133514404 -0.25380000472068787 0.47040000557899475 -0.8452000021934509
          0.3093000054359436 0.1703999936580658 -0.9355999827384949 0.8500000238418579 -0.12280000001192093 -0.5123000144958496
          0.9243999719619751 -0.30630001425743103 -0.2273000031709671 0.779699981212616 0.011699999682605267 -0.6261000037193298
          0.7153000235557556 -0.08330000191926956 -0.6937999725341797 -0.2198999971151352 -0.7383000254631042 -0.6377000212669373
          -0.25029999017715454 -0.6503999829292297 -0.7171000242233276 -0.3005000054836273 -0.6015999913215637 -0.7401000261306763
          -0.7379999756813049 0.055399999022483826 -0.6725000143051147 -0.5253000259399414 -0.8129000067710876 0.2515000104904175
          -0.8019999861717224 -0.54339998960495 -0.24799999594688416 -0.9789999723434448 0.0203000009059906 0.20309999585151672
          0.019999999552965164 -0.7509999871253967 0.6600000262260437 0.04969999939203262 -0.6330999732017517 0.7724999785423279
          0.1446000039577484 -0.7978000044822693 0.5853000283241272 0.460999995470047 -0.460999995470047 0.7583000063896179
          0.84579998254776 -0.313400000333786 0.43160000443458557 0.757099986076355 -0.21040000021457672 0.618399977684021
          -0.7343999743461609 -0.5447999835014343 0.4047999978065491 -0.5616000294685364 -0.5464000105857849 0.6212999820709229
          -0.3474000096321106 -0.7789999842643738 0.5218999981880188 -0.07159999758005142 -0.864300012588501 0.49790000915527344
          0.8611999750137329 -0.2775000035762787 0.42590001225471497 0.8748000264167786 0.03460000082850456 0.4832000136375427
          0.6136999726295471 0.7134000062942505 0.33820000290870667 0.8246999979019165 0.45980000495910645 0.3294000029563904
          0.8996999859809875 0.2215999960899353 0.37619999051094055 0.6237000226974487 -0.6693000197410583 0.40380001068115234
          0.6535000205039978 -0.3806999921798706 0.65420001745224 0.7732999920845032 -0.44519999623298645 0.4514000117778778
          0.7615000009536743 -0.6069999933242798 0.22750000655651093 0.781499981880188 -0.6104999780654907 0.12849999964237213
          0.7853999733924866 -0.4226999878883362 0.45210000872612 0.6521000266075134 0.28600001335144043 0.7021999955177307
          0.5626000165939331 0.39320001006126404 0.7271999716758728 -0.7057999968528748 0.708299994468689 0.011900000274181366
          -0.6628999710083008 0.7487000226974487 0.005100000184029341 -0.746999979019165 0.6427000164985657 0.17030000686645508
          -0.7041000127792358 0.6625000238418579 0.2558000087738037 -0.7767000198364258 0.5812000036239624 0.24279999732971191
          -0.10790000110864639 0.7515000104904175 -0.6507999897003174 0.007799999788403511 0.5978000164031982 -0.8015999794006348
          0.15389999747276306 0.9869999885559082 0.04690000042319298 0.3296999931335449 0.8628000020980835 -0.3831999897956848
          0.4715999960899353 -0.8289999961853027 0.3005000054836273 0.5898000001907349 -0.5699999928474426 0.5720000267028809
          0.45669999718666077 -0.8281000256538391 0.3249000012874603 -0.2587999999523163 0.7196000218391418 0.6442999839782715
          -0.00570000009611249 -0.014100000262260437 0.9998999834060669 0.33730000257492065 -0.0348999984562397 0.9406999945640564
          -0.6614000201225281 0.746399998664856 -0.07410000264644623 -0.6244999766349792 0.7656999826431274 -0.15379999577999115
          -0.6800000071525574 0.7246000170707703 0.11159999668598175 -0.7605000138282776 0.6444000005722046 -0.08079999685287476
          -0.7684000134468079 0.4390000104904175 0.46560001373291016 -0.633899986743927 0.6776999831199646 0.3727000057697296
          0.659500002861023 -0.7285000085830688 -0.18520000576972961 0.8076000213623047 -0.5824999809265137 -0.09210000187158585
          0.5291000008583069 -0.8409000039100647 0.11400000005960464 0.26919999718666077 -0.7843999862670898 0.5587000250816345
          -0.656000018119812 0.04989999905228615 -0.7530999779701233 -0.7867000102996826 0.21070000529289246 -0.580299973487854
          -0.728600025177002 0.4618000090122223 0.5058000087738037 -0.823199987411499 0.5185999870300293 0.23119999468326569
          -0.5740000009536743 0.7888000011444092 0.21979999542236328 0.7071999907493591 -0.09920000284910202 0.7001000046730042
          0.781000018119812 -0.26010000705718994 0.567799985408783 0.8235999941825867 0.0052999998442828655 0.5670999884605408
          0.7893000245094299 0.08169999718666077 0.6085000038146973 -0.16339999437332153 -0.6538000106811523 -0.7387999892234802
          -0.5270000100135803 -0.09139999747276306 -0.8449000120162964 -0.4429999887943268 -0.2736000120639801 -0.8537999987602234
          -0.19609999656677246 0.3644999861717224 -0.9103000164031982 -0.4927999973297119 0.2913999855518341 -0.8198999762535095
          0.2282000035047531 -0.2937999963760376 -0.9282000064849854 0.18960000574588776 -0.46950000524520874 -0.8622999787330627
          -0.1712999939918518 -0.09570000320672989 -0.9805999994277954 -0.4675000011920929 0.850600004196167 0.24070000648498535
          -0.5666999816894531 0.7497000098228455 0.3418000042438507 0.09430000185966492 0.8817999958992004 0.46219998598098755
          -0.1298999935388565 0.8345000147819519 0.5354999899864197 -0.0560000017285347 0.853600025177002 0.5178999900817871
          -0.828499972820282 0.36739999055862427 -0.42260000109672546 -0.8289999961853027 0.38339999318122864 -0.40720000863075256
          -0.5541999936103821 0.1678999960422516 -0.8151999711990356 -0.24449999630451202 -0.8689000010490417 0.430400013923645
          0.580299973487854 -0.792900025844574 0.1860000044107437 0.41040000319480896 -0.875 0.25690001249313354
          -0.6209999918937683 -0.13729999959468842 -0.7717000246047974 -0.4821999967098236 -0.23109999299049377 -0.8450000286102295
          -0.6564000248908997 0.04699999839067459 -0.753000020980835 0.8704000115394592 0.2371000051498413 -0.43160000443458557
          0.9375 0.18719999492168427 -0.29350000619888306 0.8841999769210815 0.3781000077724457 -0.2741999924182892
          0.9003000259399414 0.4007999897003174 -0.1695999950170517 -0.7186999917030334 -0.011900000274181366 -0.6952000260353088
          -0.5889000296592712 -0.22869999706745148 -0.7750999927520752 -0.8363999724388123 0.17239999771118164 -0.5203999876976013
          -0.739300012588501 0.31540000438690186 -0.5949000120162964 -0.8389000296592712 0.2777000069618225 -0.4681999981403351
          -0.847000002861023 0.39070001244544983 -0.36059999465942383 0.5670999884605408 -0.7070000171661377 -0.42250001430511475
          0.5090000033378601 -0.590499997138977 -0.6262999773025513 0.4284999966621399 -0.6434000134468079 -0.6344000101089478
          0.1680999994277954 -0.6628000140190125 -0.7296000123023987 0.6245999932289124 -0.779699981212616 0.043299999088048935
          -0.4578000009059906 -0.3357999920845032 -0.823199987411499 -0.3594000041484833 -0.38989999890327454 -0.8478000164031982
          -0.6247000098228455 -0.35100001096725464 -0.6974999904632568 -0.8102999925613403 -0.18140000104904175 0.557200014591217
          0.44359999895095825 0.7914000153541565 0.4205999970436096 -0.6283000111579895 0.7689999938011169 0.11779999732971191
          0.6869999766349792 0.4041000008583069 0.6039999723434448 0.6845999956130981 -0.4805000126361847 0.5480999946594238
          0.6845999956130981 -0.2741999924182892 0.6753000020980835 0.8827999830245972 -0.4620000123977661 0.08540000021457672
          0.6421999931335449 -0.5734000205993652 0.5087000131607056 0.6581000089645386 -0.7128999829292297 0.24220000207424164
          0.954200029373169 -0.034299999475479126 0.2971999943256378 -0.11159999668598175 -0.6646999716758728 -0.7387999892234802
          -0.48579999804496765 -0.43959999084472656 -0.7555000185966492 0.2046000063419342 -0.6517000198364258 -0.730400025844574
          0.2506999969482422 -0.644599974155426 -0.7221999764442444 0.3513999879360199 -0.6656000018119812 -0.6583999991416931
          -0.7135000228881836 0.637499988079071 -0.290800005197525 -0.40400001406669617 0.25870001316070557 -0.8773999810218811
          -0.7196999788284302 0.6186000108718872 -0.31540000438690186 -0.7671999931335449 0.6110000014305115 -0.19499999284744263
          -0.8406000137329102 0.48399999737739563 -0.2433999925851822 -0.7983999848365784 0.25870001316070557 -0.5437999963760376
          -0.7797999978065491 0.4523000121116638 -0.4327999949455261 -0.8590999841690063 0.36480000615119934 -0.35899999737739563
          -0.09610000252723694 -0.9555000066757202 -0.27880001068115234 0.6812000274658203 -0.511900007724762 -0.5234000086784363
          0.8226000070571899 -0.40610000491142273 -0.39800000190734863 -0.4162999987602234 0.12020000070333481 -0.901199996471405
          -0.7749999761581421 0.33660000562667847 -0.5347999930381775 0.5702999830245972 -0.7656999826431274 0.2973000109195709
          0.7264000177383423 -0.671500027179718 0.1462000012397766 0.6248999834060669 -0.774399995803833 0.0989999994635582
          0.7630000114440918 0.23019999265670776 0.6039999723434448 0.8497999906539917 0.20100000500679016 0.487199991941452
          -0.08049999922513962 0.9106000065803528 0.40540000796318054 0.17229999601840973 0.8966000080108643 0.40790000557899475
          0.9362999796867371 0.0949999988079071 -0.33809998631477356 -0.24210000038146973 0.9555000066757202 0.1687999963760376
          -0.5016999840736389 0.8445000052452087 0.18719999492168427 -0.2298000007867813 -0.44920000433921814 -0.8633999824523926
          0.18240000307559967 -0.3901999890804291 -0.9024999737739563 -0.44999998807907104 0.018799999728798866 -0.892799973487854
          0.6040999889373779 -0.2791000008583069 -0.746399998664856 0.6279000043869019 -0.2062000036239624 -0.7505000233650208
          0.3012999892234802 -0.27619999647140503 -0.9126999974250793 0.29670000076293945 -0.7396000027656555 -0.604200005531311
          0.09200000017881393 -0.704800009727478 -0.703499972820282 -0.054999999701976776 -0.35030001401901245 0.9350000023841858
          0.3962000012397766 -0.6244000196456909 0.6732000112533569 -0.08910000324249268 -0.17249999940395355 0.9810000061988831
          0.5182999968528748 -0.28540000319480896 0.8062000274658203 -0.864300012588501 0.24269999563694 -0.4404999911785126
          -0.6593999862670898 0.2743000090122223 -0.699999988079071 -0.6428999900817871 0.1518000066280365 -0.7508000135421753
          0.7512999773025513 -0.6108999848365784 0.24969999492168427 0.5654000043869019 -0.8055999875068665 0.1770000010728836
          0.7289000153541565 -0.6061999797821045 0.3181000053882599 0.7285000085830688 0.010200000368058681 0.6848999857902527
          0.7954999804496765 -0.26809999346733093 0.5432999730110168 0.694100022315979 0.17900000512599945 0.6972000002861023
          0.6187999844551086 0.7264999747276306 0.298799991607666 0.41040000319480896 0.8650000095367432 0.28870001435279846
          -0.6080999970436096 0.7163000106811523 0.34220001101493835 -0.7160999774932861 0.6977999806404114 0.012299999594688416
          -0.7718999981880188 0.5806999802589417 0.2587999999523163 -0.7315000295639038 0.5515999794006348 0.4007999897003174
          -0.6276999711990356 0.614300012588501 0.4781999886035919 -0.5956000089645386 0.6559000015258789 0.46389999985694885
          -0.7710000276565552 0.5167999863624573 -0.3720000088214874 0.29120001196861267 -0.1809999942779541 0.9394000172615051
          0.18790000677108765 -0.7457000017166138 0.6392999887466431 0.7311000227928162 0.6807000041007996 0.04610000178217888
          0.777999997138977 0.5906999707221985 -0.21379999816417694 -0.4481000006198883 0.2824999988079071 -0.8482000231742859
          -0.22669999301433563 0.5490000247955322 -0.8044999837875366 -0.2386000007390976 0.4253999888896942 -0.8730000257492065
          0.9212999939918518 -0.03840000182390213 0.38690000772476196 0.7998999953269958 -0.5814999938011169 0.14830000698566437
          -0.678600013256073 0.6281999945640564 0.3806999921798706 -0.5940999984741211 0.7861999869346619 0.17010000348091125
          0.8564000129699707 0.013899999670684338 0.5160999894142151 0.6901000142097473 -0.7236999869346619 0.007699999958276749
          0.6570000052452087 -0.6923999786376953 0.29820001125335693 -0.4185999929904938 0.33250001072883606 0.8450999855995178
          -0.41940000653266907 0.6351000070571899 0.6485999822616577 0.15150000154972076 -0.4325000047683716 0.8888000249862671
          0.8403000235557556 0.08160000294446945 -0.5358999967575073 -0.3596999943256378 0.8687999844551086 0.3402999937534332
          -0.2935999929904938 0.8396000266075134 0.4571000039577484 -0.8924000263214111 0.4453999996185303 0.07180000096559525
          0.1956000030040741 -0.3070000112056732 -0.9314000010490417 0.5159000158309937 0.18389999866485596 -0.8367000222206116
          0.6906999945640564 -0.1550000011920929 -0.7063000202178955 0.6988999843597412 -0.522599995136261 0.48829999566078186
          0.7694000005722046 -0.34709998965263367 0.536300003528595 0.7803999781608582 -0.1889999955892563 0.5960000157356262
          0.84170001745224 -0.30149999260902405 0.4480000138282776 0.8447999954223633 -0.0925000011920929 0.5270000100135803
          -0.5997999906539917 0.7890999913215637 -0.13279999792575836 -0.8235999941825867 0.5084999799728394 -0.25119999051094055
          0.8740000128746033 -0.2409999966621399 0.421999990940094 0.8057000041007996 -0.004800000227987766 0.5922999978065491
          -0.3140000104904175 0.03310000151395798 -0.9488000273704529 -0.6528000235557556 0.27639999985694885 -0.705299973487854
          -0.44780001044273376 0.16509999334812164 0.8787000179290771 -0.2809000015258789 0.0071000000461936 0.9596999883651733
          0.3379000127315521 0.5293999910354614 -0.7781999707221985 -0.7174000144004822 0.15080000460147858 -0.6801999807357788
          -0.6723999977111816 0.28380000591278076 -0.6837000250816345 0.5674999952316284 0.7160000205039978 0.4065999984741211
          0.19509999454021454 0.7875999808311462 0.5843999981880188 0.42590001225471497 0.7555999755859375 0.4977000057697296
          0.20640000700950623 -0.8285999894142151 0.5203999876976013 -0.8391000032424927 0.07540000230073929 -0.5388000011444092
          0.5066999793052673 0.43619999289512634 -0.7436000108718872 0.003000000026077032 0.7131999731063843 -0.7009999752044678
          0.3497999906539917 0.35499998927116394 -0.8669999837875366 -0.17710000276565552 0.9807999730110168 -0.08129999786615372
          -0.5206000208854675 0.8532000184059143 -0.03319999948143959 0.8084999918937683 0.3458999991416931 -0.47609999775886536