<?xml version="1.0"?>
<VTKFile type="PolyData" version="0.1" byte_order="LittleEndian" header_type="UInt32" compressor="vtkZLibDataCompressor">
  <PolyData>
    <FieldData>
      <Array type="String" Name="MaterialNames" NumberOfTuples="1" format="ascii">
        109 97 116 101 114 105 97 108 95 48 0
      </Array>
      <Array type="String" Name="MaterialLibraries" NumberOfTuples="1" format="ascii">
        109 97 116 101 114 105 97 108 46 109 116 108 0
      </Array>
    </FieldData>
    <Piece NumberOfPoints="239" NumberOfVerts="0" NumberOfLines="0" NumberOfStrips="0" NumberOfPolys="435">
      <PointData Normals="Normals">
        <DataArray type="Float32" Name="Normals" NumberOfComponents="3" format="ascii" RangeMin="0.9999383884517027" RangeMax="1.0000646204174033">
          -0.6527000069618225 0.2425999939441681 -0.7177000045776367 -0.4219000041484833 0.18790000677108765 -0.886900007724762
          -0.3458000123500824 0.1746000051498413 -0.9218999743461609 0.8779000043869019 0.026399999856948853 0.4779999852180481
          0.8424999713897705 0.009999999776482582 0.5386000275611877 0.6736999750137329 -0.4893999993801117 0.5536999702453613
          -0.8978000283241272 0.3684999942779541 0.24120000004768372 -0.7609000205993652 0.6029000282287598 0.23989999294281006
          -0.8759999871253967 0.48170000314712524 -0.02419999986886978 0.8561999797821045 0.5008000135421753 -0.12700000405311584
          0.8881999850273132 0.4431999921798706 0.12099999934434891 0.9261000156402588 0.24819999933242798 0.2842000126838684
          -0.4480000138282776 0.777899980545044 0.4406999945640564 -0.6119999885559082 0.7457000017166138 0.26350000500679016
          -0.6078000068664551 0.5644000172615051 0.5586000084877014 0.7781999707221985 0.25949999690055847 -0.5719000101089478
          0.901199996471405 0.053199999034404755 -0.4302000105381012 0.779699981212616 -0.049400001764297485 -0.6241999864578247
          0.24549999833106995 -0.8489000201225281 0.46799999475479126 0.33469998836517334 -0.9146999716758728 0.226500004529953
          -0.2676999866962433 -0.9381999969482422 0.21940000355243683 -0.23409999907016754 0.2854999899864197 0.9293000102043152
          -0.1054999977350235 0.24889999628067017 0.9628000259399414 -0.1876000016927719 0.3783000111579895 0.906499981880188
          -0.8385999798774719 0.3862000107765198 0.38429999351501465 -0.8586000204086304 0.4408999979496002 0.2614000141620636
          -0.826200008392334 0.5024999976158142 0.2549000084400177 0.05660000070929527 0.19059999287128448 -0.9800000190734863
          -0.0608999989926815 0.25920000672340393 -0.9639000296592712 0.15479999780654907 0.33719998598098755 -0.928600013256073
          -0.35989999771118164 0.9307000041007996 0.06610000133514404 -0.13619999587535858 0.9671000242233276 0.21490000188350677
          0.04050000011920929 0.9526000022888184 -0.30149999260902405 -0.0017000000225380063 -0.13189999759197235 0.9912999868392944
          0.1784999966621399 -0.32440000772476196 0.9289000034332275 -0.131400004029274 0.18960000574588776 0.9729999899864197
          0.7770000100135803 -0.6183000206947327 0.11800000071525574 0.8337000012397766 -0.5214999914169312 0.1818999946117401
          0.7774999737739563 -0.6277999877929688 -0.03669999912381172 0.623199999332428 -0.04650000110268593 0.7806000113487244
          0.4271000027656555 0.3253999948501587 0.8436999917030334 0.48590001463890076 0.031700000166893005 0.8733999729156494
          0.009600000455975533 0.9995999932289124 0.024700000882148743 0.8228999972343445 -0.4327999949455261 0.36820000410079956
          0.7286999821662903 -0.5436000227928162 0.4165000021457672 -0.012000000104308128 -0.6535000205039978 0.7567999958992004
          -0.021299999207258224 -0.7211999893188477 0.6923999786376953 -0.2653000056743622 -0.6547999978065491 0.7077000141143799
          -0.32179999351501465 0.8942000269889832 0.3111000061035156 0.18940000236034393 0.8414000272750854 0.5062000155448914
          0.41609999537467957 0.8758000135421753 0.24469999969005585 0.08129999786615372 0.9945999979972839 0.06440000236034393
          0.5740000009536743 0.8187999725341797 -0.01080000028014183 0.5188999772071838 0.5878999829292297 -0.6205999851226807
          0.43209999799728394 0.6396999955177307 -0.6355999708175659 0.42829999327659607 0.40610000491142273 -0.8072999715805054
          0.6523000001907349 0.4440999925136566 -0.6141999959945679 0.5932000279426575 0.21780000627040863 -0.7749999761581421
          -0.20489999651908875 0.15410000085830688 -0.9666000008583069 -0.04610000178217888 0.14949999749660492 -0.9876999855041504
          -0.8513000011444092 0.5213000178337097 0.05909999832510948 -0.6517999768257141 0.22450000047683716 -0.724399983882904
          -0.7842000126838684 0.2759999930858612 -0.5557000041007996 -0.5365999937057495 0.3199000060558319 -0.7807999849319458
          0.23880000412464142 -0.8543000221252441 0.4616999924182892 0.5260000228881836 -0.7091000080108643 0.46959999203681946
          0.4959999918937683 -0.7670999765396118 0.40700000524520874 0.6207000017166138 0.16840000450611115 -0.7657999992370605
          0.38119998574256897 0.09539999812841415 -0.9194999933242798 0.057100001722574234 0.07909999787807465 -0.995199978351593
          0.05620000138878822 0.6410999894142151 0.7653999924659729 0.9535999894142151 0.28040000796318054 0.1096000000834465
          0.9099000096321106 -0.3537999987602234 -0.21649999916553497 0.07559999823570251 -0.0005000000237487257 0.9970999956130981
          0.290800005197525 -0.5447999835014343 0.7865999937057495 -0.4512999951839447 -0.45339998602867126 0.7685999870300293
          -0.46369999647140503 0.7110999822616577 -0.5285000205039978 -0.25850000977516174 0.9186999797821045 -0.2985000014305115
          -0.11339999735355377 0.8276000022888184 -0.5497000217437744 -0.7203999757766724 0.6916000247001648 -0.05260000005364418
          -0.7623999714851379 0.5246999859809875 -0.37860000133514404 -0.6003000140190125 0.4081000089645386 0.6877999901771545
          -0.6270999908447266 0.25110000371932983 0.7372999787330627 0.03280000016093254 0.2962999939918518 0.9545000195503235
          -0.11710000038146973 0.9775999784469604 0.17499999701976776 0.5149000287055969 0.8270999789237976 0.225600004196167
          0.7405999898910522 0.6509000062942505 -0.16689999401569366 0.5985000133514404 0.8008000254631042 -0.025299999862909317
          -0.928600013256073 0.3702000081539154 -0.02710000053048134 -0.9470999836921692 0.2962000072002411 0.12370000034570694
          -0.43389999866485596 0.5051000118255615 0.7461000084877014 -0.43149998784065247 0.30230000615119934 0.8500000238418579
          -0.008200000040233135 0.45179998874664307 -0.8920999765396118 -0.8025000095367432 0.5576000213623047 -0.21240000426769257
          -0.8180000185966492 0.5752000212669373 0.0007999999797903001 -0.8230999708175659 0.5648999810218811 -0.05829999968409538
          0.5160999894142151 -0.6868000030517578 0.5117999911308289 0.33649998903274536 -0.9413999915122986 -0.021299999207258224
          0.3610000014305115 -0.733299970626831 0.5760999917984009 -0.7641000151634216 0.5105000138282776 -0.39430001378059387
          0.2928999960422516 0.06930000334978104 0.9535999894142151 -0.9794999957084656 -0.14579999446868896 -0.13930000364780426
          -0.96670001745224 0.24950000643730164 -0.05730000138282776 0.09149999916553497 0.2849999964237213 0.9541000127792358
          0.16529999673366547 0.5580999851226807 0.8130999803543091 -0.07559999823570251 0.9129999876022339 0.4009000062942505
          0.025699999183416367 0.9894999861717224 -0.14239999651908875 0.4740000069141388 0.10209999978542328 -0.8745999932289124
          0.40459999442100525 0.2653000056743622 -0.8751999735832214 -0.6219000220298767 -0.3968000113964081 0.6751999855041504
          -0.459199994802475 -0.4796999990940094 0.7476999759674072 0.5870000123977661 -0.805899977684021 -0.07699999958276749
          0.6891000270843506 -0.7246000170707703 0.00800000037997961 0.9613000154495239 -0.2687999904155731 -0.060499999672174454
          -0.3781999945640564 0.16910000145435333 -0.9101999998092651 0.1597999930381775 0.43299999833106995 -0.8870999813079834
          0.7123000025749207 0.590499997138977 0.37950000166893005 -0.009399999864399433 0.6769999861717224 0.7358999848365784
          0.6665999889373779 -0.4964999854564667 0.5559999942779541 0.4198000133037567 -0.43459999561309814 0.7968000173568726
          0.46630001068115234 -0.7422999739646912 0.4810999929904938 0.2775000035762787 -0.3702000081539154 0.8866000175476074
          0.7736999988555908 -0.2702000141143799 0.5730000138282776 -0.8745999932289124 0.329800009727478 -0.3553999960422516
          -0.9760000109672546 0.21559999883174896 -0.03099999949336052 -0.6614999771118164 0.4099000096321106 0.628000020980835
          -0.578499972820282 0.4505000114440918 0.6800000071525574 -0.4284000098705292 0.42500001192092896 0.7973999977111816
          -0.3102000057697296 0.23970000445842743 0.9200000166893005 -0.05389999970793724 0.649399995803833 -0.7584999799728394
          -0.20909999310970306 0.6869999766349792 -0.695900022983551 -0.8295999765396118 0.4025000035762787 0.3869999945163727
          -0.8008000254631042 0.40639999508857727 0.4399000108242035 -0.492900013923645 0.414000004529953 0.7652999758720398
          0.7019000053405762 0.23399999737739563 0.6726999878883362 0.8615999817848206 0.2827000021934509 0.42160001397132874
          0.7922000288963318 0.48750001192092896 0.3671000003814697 0.6830000281333923 0.42080000042915344 0.597000002861023
          -0.5705999732017517 0.3709000051021576 -0.732699990272522 -0.4603999853134155 0.2703999876976013 -0.8454999923706055
          -0.8507999777793884 0.47780001163482666 -0.21850000321865082 -0.7245000004768372 0.4397999942302704 -0.5307000279426575
          -0.7818999886512756 0.5386999845504761 -0.31369999051094055 0.7231000065803528 0.5526000261306763 -0.41440001130104065
          0.9157999753952026 0.39590001106262207 -0.0681999996304512 0.8935999870300293 0.29499998688697815 -0.3384000062942505
          0.9847999811172485 0.1729000061750412 0.018699999898672104 0.8977000117301941 -0.06880000233650208 0.4350999891757965
          -0.9406999945640564 0.329800009727478 0.07999999821186066 -0.9667999744415283 0.002400000113993883 0.2556999921798706
          -0.3781000077724457 0.1923000067472458 0.9056000113487244 -0.6485000252723694 0.36329999566078186 -0.6689000129699707
          0.18690000474452972 0.9269999861717224 0.325300008058548 0.07670000195503235 0.5889000296592712 0.8044999837875366
          0.5306000113487244 0.6082000136375427 0.590399980545044 0.5501000285148621 -0.516700029373169 0.656000018119812
          0.36800000071525574 -0.18719999492168427 0.9107999801635742 0.7796000242233276 -0.47780001163482666 0.4049000144004822
          -0.8104000091552734 0.19629999995231628 0.5519999861717224 -0.8579000234603882 0.33410000801086426 0.390500009059906
          -0.7522000074386597 0.47909998893737793 0.45239999890327454 -0.767799973487854 0.47870001196861267 0.42590001225471497
          -0.4878999888896942 0.3260999917984009 0.8097000122070312 0.20430000126361847 0.5238999724388123 -0.8269000053405762
          0.22499999403953552 0.3091999888420105 0.9240000247955322 -0.5641000270843506 0.7175999879837036 0.40860000252723694
          0.4569000005722046 0.03319999948143959 0.8888999819755554 0.5282999873161316 -0.742900013923645 0.41110000014305115
          0.5723000168800354 -0.6952999830245972 0.43479999899864197 0.5475000143051147 -0.1842000037431717 0.8162999749183655
          0.7131999731063843 -0.6491000056266785 -0.26460000872612 0.3398999869823456 -0.41589999198913574 0.843500018119812
          0.6413000226020813 0.7190999984741211 0.26750001311302185 0.5174999833106995 0.5809999704360962 0.6280999779701233
          0.8870999813079834 -0.00559999980032444 -0.46149998903274536 -0.652999997138977 0.3702000081539154 -0.6607000231742859
          -0.2838999927043915 0.007199999876320362 -0.9588000178337097 0.8321999907493591 -0.5397999882698059 0.12710000574588776
          -0.6381999850273132 0.38359999656677246 0.6675000190734863 -0.603600025177002 0.3264000117778778 0.727400004863739
          -0.46230000257492065 0.36309999227523804 0.808899998664856 -0.7633000016212463 0.3880000114440918 0.5164999961853027
          -0.18160000443458557 0.6940000057220459 0.6966999769210815 -0.35370001196861267 0.6574000120162964 0.6654000282287598
          0.7049000263214111 -0.08110000193119049 -0.7046999931335449 0.6998000144958496 0.07050000131130219 -0.7107999920845032
          0.7249000072479248 -0.11020000278949738 -0.6800000071525574 -0.8374999761581421 0.13609999418258667 0.52920001745224
          -0.33739998936653137 -0.652899980545044 0.6780999898910522 -0.9114999771118164 -0.3418000042438507 0.2287999987602234
          -0.7294999957084656 -0.421999990940094 -0.5382999777793884 0.8388000130653381 -0.4724999964237213 0.2705000042915344
          -0.24379999935626984 0.2150000035762787 -0.9456999897956848 -0.2612000107765198 0.3968999981880188 -0.8798999786376953
          0.25040000677108765 -0.0007999999797903001 0.9681000113487244 0.30219998955726624 0.7008000016212463 0.6460999846458435
          0.623199999332428 -0.4235000014305115 0.6574000120162964 0.814300000667572 -0.49309998750686646 0.30630001425743103
          0.8343999981880188 -0.3894999921321869 -0.38989999890327454 -0.9580000042915344 0.27709999680519104 0.07329999655485153
          -0.9024999737739563 0.30640000104904175 0.302700012922287 0.35030001401901245 0.923799991607666 0.15459999442100525
          0.6345999836921692 0.6294999718666077 -0.44839999079704285 0.2881999909877777 -0.829800009727478 -0.4778999984264374
          0.6209999918937683 -0.4163999855518341 0.6640999913215637 0.08420000225305557 -0.18799999356269836 0.978600025177002
          -0.7896000146865845 0.5881999731063843 0.17509999871253967 -0.5325000286102295 0.821399986743927 -0.20419999957084656
          -0.8147000074386597 0.39089998602867126 -0.4284000098705292 0.8054999709129333 -0.5547999739646912 -0.20800000429153442
          -0.919700026512146 0.39070001244544983 -0.03920000046491623 -0.9312999844551086 0.2791999876499176 -0.23399999737739563
          -0.3165999948978424 -0.2784999907016754 0.9067999720573425 0.23090000450611115 0.24320000410079956 -0.9420999884605408
          0.20149999856948853 0.17640000581741333 -0.9635000228881836 0.5593000054359436 -0.6887999773025513 0.46129998564720154
          0.8849999904632568 0.17870000004768372 -0.42980000376701355 0.867900013923645 0.4505000114440918 0.2094999998807907
          0.149399995803833 0.6808000206947327 -0.7171000242233276 0.1655000001192093 0.828499972820282 -0.5350000262260437
          -0.46140000224113464 0.36010000109672546 -0.8108000159263611 -0.72079998254776 0.504800021648407 -0.4749999940395355
          0.004100000020116568 0.1370999962091446 -0.9905999898910522 0.7666000127792358 0.6366000175476074 0.08380000293254852
          0.8980000019073486 -0.41659998893737793 0.1412999927997589 -0.8579000234603882 0.43299999833106995 0.2768000066280365
          -0.6133000254631042 0.43939998745918274 -0.6564000248908997 0.3203999996185303 0.210999995470047 0.9235000014305115
          0.08209999650716782 0.1559000015258789 0.9843999743461609 0.7936000227928162 -0.030700000002980232 0.607699990272522
          -0.6694999933242798 0.3781000077724457 -0.6394000053405762 -0.353300005197525 0.1242000013589859 0.9272000193595886
          0.909600019454956 -0.3303000032901764 0.25220000743865967 -0.8068000078201294 0.5669000148773193 0.16660000383853912
          -0.7882000207901001 0.5224000215530396 0.3255000114440918 0.040800001472234726 0.14669999480247498 -0.9883000254631042
          -0.7347000241279602 0.5777000188827515 0.35580000281333923 -0.32170000672340393 0.147599995136261 -0.9352999925613403
          -0.542900025844574 0.4156999886035919 -0.7297000288963318
          <InformationKey name="L2_NORM_RANGE" location="vtkDataArray" length="2">
            <Value index="0">
              0.99993838845
            </Value>
            <Value index="1">
              1.0000646204
            </Value>
          </InformationKey>
        </DataArray>
      </PointData>
      <CellData>
        <DataArray type="Int32" Name="MaterialIds" format="ascii" RangeMin="0" RangeMax="0">
          0 0 0 0 0 0
          0 0 0 0 0 0
          0 0 0 0 0 0
          0 0 0 0 0 0
          0 0 0 0 0 0
          0 0 0 0 0 0
          0 0 0 0 0 0
          0 0 0 0 0 0
          0 0 0 0 0 0
          0 0 0 0 0 0
          0 0 0 0 0 0
          0 0 0 0 0 0
          0 0 0 0 0 0
          0 0 0 0 0 0
          0 0 0 0 0 0
          0 0 0 0 0 0
          0 0 0 0 0 0
          0 0 0 0 0 0
          0 0 0 0 0 0
          0 0 0 0 0 0
          0 0 0 0 0 0
          0 0 0 0 0 0
          0 0 0 0 0 0
          0 0 0 0 0 0
          0 0 0 0 0 0
          0 0 0 0 0 0
          0 0 0 0 0 0
          0 0 0 0 0 0
          0 0 0 0 0 0
          0 0 0 0 0 0
          0 0 0 0 0 0
          0 0 0 0 0 0
          0 0 0 0 0 0
          0 0 0 0 0 0
          0 0 0 0 0 0
          0 0 0 0 0 0
          0 0 0 0 0 0
          0 0 0 0 0 0
          0 0 0 0 0 0
          0 0 0 0 0 0
          0 0 0 0 0 0
          0 0 0 0 0 0
          0 0 0 0 0 0
          0 0 0 0 0 0
          0 0 0 0 0 0
          0 0 0 0 0 0
          0 0 0 0 0 0
          0 0 0 0 0 0
          0 0 0 0 0 0
          0 0 0 0 0 0
          0 0 0 0 0 0
          0 0 0 0 0 0
          0 0 0 0 0 0
          0 0 0 0 0 0
          0 0 0 0 0 0
          0 0 0 0 0 0
          0 0 0 0 0 0
          0 0 0 0 0 0
          0 0 0 0 0 0
          0 0 0 0 0 0
          0 0 0 0 0 0
          0 0 0 0 0 0
          0 0 0 0 0 0
          0 0 0 0 0 0
          0 0 0 0 0 0
          0 0 0 0 0 0
          0 0 0 0 0 0
          0 0 0 0 0 0
          0 0 0 0 0 0
          0 0 0 0 0 0
          0 0 0 0 0 0
          0 0 0 0 0 0
          0 0 0
        </DataArray>
        <DataArray type="Float32" Name="GroupIds" format="ascii" RangeMin="0" RangeMax="0">
          0 0 0 0 0 0
          0 0 0 0 0 0
          0 0 0 0 0 0
          0 0 0 0 0 0
          0 0 0 0 0 0
          0 0 0 0 0 0
          0 0 0 0 0 0
          0 0 0 0 0 0
          0 0 0 0 0 0
          0 0 0 0 0 0
          0 0 0 0 0 0
          0 0 0 0 0 0
          0 0 0 0 0 0
          0 0 0 0 0 0
          0 0 0 0 0 0
          0 0 0 0 0 0
          0 0 0 0 0 0
          0 0 0 0 0 0
          0 0 0 0 0 0
          0 0 0 0 0 0
          0 0 0 0 0 0
          0 0 0 0 0 0
          0 0 0 0 0 0
          0 0 0 0 0 0
          0 0 0 0 0 0
          0 0 0 0 0 0
          0 0 0 0 0 0
          0 0 0 0 0 0
          0 0 0 0 0 0
          0 0 0 0 0 0
          0 0 0 0 0 0
          0 0 0 0 0 0
          0 0 0 0 0 0
          0 0 0 0 0 0
          0 0 0 0 0 0
          0 0 0 0 0 0
          0 0 0 0 0 0
          0 0 0 0 0 0
          0 0 0 0 0 0
          0 0 0 0 0 0
          0 0 0 0 0 0
          0 0 0 0 0 0
          0 0 0 0 0 0
          0 0 0 0 0 0
          0 0 0 0 0 0
          0 0 0 0 0 0
          0 0 0 0 0 0
          0 0 0 0 0 0
          0 0 0 0 0 0
          0 0 0 0 0 0
          0 0 0 0 0 0
          0 0 0 0 0 0
          0 0 0 0 0 0
          0 0 0 0 0 0
          0 0 0 0 0 0
          0 0 0 0 0 0
          0 0 0 0 0 0
          0 0 0 0 0 0
          0 0 0 0 0 0
          0 0 0 0 0 0
          0 0 0 0 0 0
          0 0 0 0 0 0
          0 0 0 0 0 0
          0 0 0 0 0 0
          0 0 0 0 0 0
          0 0 0 0 0 0
          0 0 0 0 0 0
          0 0 0 0 0 0
          0 0 0 0 0 0
          0 0 0 0 0 0
          0 0 0 0 0 0
          0 0 0 0 0 0
          0 0 0
        </DataArray>
      </CellData>
      <Points>
        <DataArray type="Float32" Name="Points" NumberOfComponents="3" format="ascii" RangeMin="23.54997604408176" RangeMax="27.852576030382462">
          17.769699096679688 -12.92240047454834 -12.368800163269043 18.327899932861328 -12.022299766540527 -12.596699714660645
          18.440000534057617 -13.29580020904541 -12.849599838256836 21.685800552368164 -11.51609992980957 -9.870200157165527
          21.475900650024414 -11.447600364685059 -9.445099830627441 21.343799591064453 -12.10669994354248 -9.496399879455566
          17.956899642944336 -10.949700355529785 -10.80620002746582 18.386899948120117 -10.094900131225586 -10.8193998336792
          18.069299697875977 -10.514800071716309 -11.320699691772461 21.66699981689453 -10.755399703979492 -10.830499649047852
          21.603500366210938 -10.623000144958496 -10.340499877929688 21.880199432373047 -11.319700241088867 -10.3149995803833
          19.028400421142578 -9.944000244140625 -10.01609992980957 18.572599411010742 -9.949600219726562 -10.734399795532227
          18.903400421142578 -10.41759967803955 -9.56089973449707 21.635900497436523 -11.593899726867676 -11.817000389099121
          22.03070068359375 -12.126500129699707 -11.353699684143066 21.65570068359375 -12.13860034942627 -11.884200096130371
          20.379199981689453 -12.86620044708252 -9.77239990234375 20.202499389648438 -12.734000205993652 -9.318400382995605
          19.79509925842285 -12.837699890136719 -9.820899963378906 19.285900115966797 -11.412500381469727 -8.982799530029297
          19.843799591064453 -11.461600303649902 -8.85990047454834 19.604799270629883 -10.527600288391113 -9.155500411987305
          16.731800079345703 -14.796699523925781 -9.674099922180176 17.247699737548828 -13.68220043182373 -9.440299987792969
          16.690200805664062 -14.370599746704102 -10.309700012207031 19.86370086669922 -11.50629997253418 -12.731399536132812
          19.385099411010742 -10.993000030517578 -12.62399959564209 19.883699417114258 -10.991999626159668 -12.599200248718262
          18.923099517822266 -9.682000160217285 -10.972800254821777 19.5049991607666 -9.59060001373291 -10.781200408935547
          19.930400848388672 -9.543499946594238 -11.228099822998047 18.326499938964844 -13.345499992370605 -8.65999984741211
          19.24530029296875 -12.852999687194824 -8.751099586486816 18.897300720214844 -12.451000213623047 -8.707599639892578
          18.513200759887695 -13.786299705505371 -9.290300369262695 18.254600524902344 -14.222200393676758 -9.858499526977539
          18.683799743652344 -13.524800300598145 -9.718600273132324 21.279199600219727 -11.487700462341309 -9.213299751281738
          20.8799991607666 -10.548199653625488 -9.207599639892578 20.886199951171875 -11.556300163269043 -8.98330020904541
          20.040599822998047 -9.44260025024414 -10.877900123596191 18.618600845336914 -13.920499801635742 -10.340399742126465
          18.90290069580078 -13.282899856567383 -10.249899864196777 19.93549919128418 -13.360699653625488 -10.272899627685547
          20.31279945373535 -13.094900131225586 -10.037799835205078 19.893999099731445 -13.05720043182373 -10.011500358581543
          19.034900665283203 -9.784000396728516 -10.39109992980957 20.50079917907715 -9.985099792480469 -9.449600219726562
          20.85580062866211 -9.946700096130371 -9.825499534606934 20.451900482177734 -9.851900100708008 -9.857600212097168
          20.5841007232666 -9.637700080871582 -10.863800048828125 20.870899200439453 -10.659099578857422 -12.004599571228027
          20.267099380493164 -10.112600326538086 -11.937000274658203 20.771499633789062 -11.11520004272461 -12.387999534606934
          21.226499557495117 -10.981900215148926 -11.95199966430664 21.095199584960938 -11.646900177001953 -12.373900413513184
          18.794200897216797 -13.394000053405762 -12.959199905395508 19.28569984436035 -13.124500274658203 -12.957300186157227
          17.101499557495117 -13.479599952697754 -11.220199584960938 18.010000228881836 -11.816699981689453 -12.331399917602539
          17.83930015563965 -11.523300170898438 -12.029800415039062 18.44610023498535 -10.902899742126465 -12.30739974975586
          21.364500045776367 -12.75570011138916 -10.773599624633789 21.389400482177734 -12.255599975585938 -9.861200332641602
          21.080799102783203 -12.656599998474121 -10.29800033569336 19.74209976196289 -11.04170036315918 -10.429300308227539
          19.94409942626953 -10.419599533081055 -10.161499977111816 19.924100875854492 -11.43529987335205 -10.466300010681152
          19.875699996948242 -11.807999610900879 -10.767900466918945 19.588499069213867 -11.463800430297852 -10.719499588012695
          19.507299423217773 -12.010100364685059 -10.395700454711914 20.0580997467041 -10.036800384521484 -10.463800430297852
          19.891000747680664 -10.767800331115723 -10.788599967956543 20.31329917907715 -10.498600006103516 -10.673800468444824
          18.53219985961914 -10.207099914550781 -11.930500030517578 19.01300048828125 -9.700200080871582 -11.41819953918457
          19.43199920654297 -9.806699752807617 -11.787300109863281 18.399700164794922 -10.029500007629395 -11.235400199890137
          18.24169921875 -10.407699584960938 -11.788100242614746 17.66900062561035 -13.532600402832031 -8.850099563598633
          17.375999450683594 -14.824199676513672 -8.705900192260742 17.80430030822754 -14.347299575805664 -8.650699615478516
          20.438199996948242 -9.917799949645996 -10.329899787902832 20.851200103759766 -9.906999588012695 -10.72350025177002
          21.418800354003906 -10.36359977722168 -10.73169994354248 21.150299072265625 -10.083900451660156 -10.435099601745605
          17.296199798583984 -13.100600242614746 -11.394800186157227 17.41010093688965 -12.880800247192383 -10.665499687194824
          19.095699310302734 -10.453200340270996 -9.376999855041504 19.034700393676758 -10.920000076293945 -9.196599960327148
          19.403200149536133 -10.557600021362305 -12.46780014038086 16.28849983215332 -14.717499732971191 -11.725700378417969
          16.195600509643555 -14.774100303649902 -11.2746000289917 16.698999404907227 -14.0625 -11.431400299072266
          18.915300369262695 -13.26360034942627 -8.899999618530273 19.67490005493164 -12.909899711608887 -9.310199737548828
          19.540599822998047 -12.867600440979004 -8.85890007019043 19.96470069885254 -11.8725004196167 -10.469099998474121
          19.3971004486084 -12.440500259399414 -10.360799789428711 20.507600784301758 -10.57699966430664 -10.428500175476074
          20.278799057006836 -10.053899765014648 -10.32509994506836 20.346500396728516 -11.066800117492676 -8.942299842834473
          20.50950050354004 -10.167699813842773 -9.24429988861084 19.95549964904785 -9.953399658203125 -9.51360034942627
          19.993600845336914 -9.896300315856934 -9.961400032043457 20.81130027770996 -12.486800193786621 -12.691100120544434
          20.78809928894043 -11.440799713134766 -12.506199836730957 19.53230094909668 -12.985600471496582 -10.290399551391602
          19.754100799560547 -13.342599868774414 -10.260299682617188 19.220699310302734 -13.160200119018555 -9.347100257873535
          18.747299194335938 -13.52970027923584 -9.345199584960938 19.762699127197266 -10.531000137329102 -10.416299819946289
          20.291000366210938 -10.539199829101562 -10.206100463867188 20.007299423217773 -10.057000160217285 -10.155900001525879
          19.810699462890625 -9.973299980163574 -10.365799903869629 19.972400665283203 -9.583200454711914 -10.575200080871582
          18.793800354003906 -13.888799667358398 -10.660200119018555 19.216800689697266 -13.499600410461426 -10.558099746704102
          20.316699981689453 -12.591899871826172 -8.933699607849121 20.206199645996094 -12.42300033569336 -8.753399848937988
          21.589599609375 -11.972000122070312 -9.806699752807617 17.42770004272461 -12.967900276184082 -11.90310001373291
          17.47439956665039 -12.40149974822998 -11.329400062561035 18.35449981689453 -12.072400093078613 -9.236100196838379
          18.28339958190918 -12.592900276184082 -8.876299858093262 18.75029945373535 -12.123200416564941 -8.90470027923584
          18.353200912475586 -12.875300407409668 -8.69909954071045 19.44809913635254 -10.261300086975098 -12.268099784851074
          18.951499938964844 -10.334400177001953 -12.266500473022461 18.17729949951172 -10.90060043334961 -10.264699935913086
          17.87190055847168 -12.445599555969238 -9.67590045928955 17.662200927734375 -14.768799781799316 -8.514200210571289
          21.332500457763672 -11.246399879455566 -9.311200141906738 21.585100173950195 -11.006099700927734 -9.860400199890137
          21.390300750732422 -10.42020034790039 -9.919899940490723 21.08679962158203 -10.501299858093262 -9.406900405883789
          17.307899475097656 -13.962400436401367 -12.435400009155273 17.770000457763672 -13.930100440979004 -12.708399772644043
          17.129199981689453 -13.481499671936035 -11.752099990844727 17.1564998626709 -13.82129955291748 -12.191300392150879
          16.729700088500977 -14.170100212097168 -11.853899955749512 21.455400466918945 -10.725899696350098 -11.401700019836426
          21.919200897216797 -11.196000099182129 -10.845999717712402 21.949399948120117 -11.588800430297852 -11.240099906921387
          22.164600372314453 -12.156999588012695 -10.89330005645752 21.990999221801758 -12.025799751281738 -10.40719985961914
          20.420400619506836 -11.410799980163574 -10.782899856567383 20.460899353027344 -10.994000434875488 -10.745200157165527
          20.280899047851562 -11.36050033569336 -10.975000381469727 20.40250015258789 -10.876500129699707 -10.39680004119873
          19.55590057373047 -9.766400337219238 -10.276000022888184 17.991199493408203 -14.817399978637695 -8.324399948120117
          18.235599517822266 -14.592300415039062 -8.78600025177002 18.601699829101562 -13.495699882507324 -8.839599609375
          18.15220069885254 -13.848799705505371 -8.76200008392334 18.272199630737305 -13.982199668884277 -8.963600158691406