<?xml version="1.0"?>
<VTKFile type="PolyData" version="0.1" byte_order="LittleEndian" header_type="UInt32" compressor="vtkZLibDataCompressor">
  <PolyData>
    <FieldData>
      <Array type="String" Name="MaterialNames" NumberOfTuples="1" format="ascii">
        109 97 116 101 114 105 97 108 95 48 0
      </Array>
      <Array type="String" Name="MaterialLibraries" NumberOfTuples="1" format="ascii">
        109 97 116 101 114 105 97 108 46 109 116 108 0
      </Array>
    </FieldData>
    <Piece NumberOfPoints="756" NumberOfVerts="0" NumberOfLines="0" NumberOfStrips="0" NumberOfPolys="1506">
      <PointData Normals="Normals">
        <DataArray type="Float32" Name="Normals" NumberOfComponents="3" format="ascii" RangeMin="0.9999330626958075" RangeMax="1.000070248436115">
          -0.12229999899864197 -0.9915000200271606 0.04439999908208847 -0.23690000176429749 -0.9470000267028809 0.21699999272823334
          0.28110000491142273 -0.9366999864578247 0.20890000462532043 -0.13220000267028809 -0.8641999959945679 0.4855000078678131
          0.5235999822616577 -0.8072999715805054 0.27239999175071716 -0.2597000002861023 -0.8568999767303467 0.44519999623298645
          -0.3246999979019165 -0.939300000667572 0.11089999973773956 0.004999999888241291 -0.7962999939918518 0.6047999858856201
          -0.125900000333786 -0.9508000016212463 0.2831000089645386 -0.6507999897003174 -0.5501999855041504 0.5231999754905701
          -0.5029000043869019 -0.8535000085830688 0.1363999992609024 -0.19830000400543213 -0.6596999764442444 0.7249000072479248
          0.46070000529289246 -0.7732999920845032 0.43560001254081726 -0.29750001430511475 -0.921500027179718 -0.24959999322891235
          0.042100001126527786 -0.9747999906539917 -0.21899999678134918 -0.053599998354911804 -0.8787999749183655 -0.4742000102996826
          0.2703000009059906 -0.9627000093460083 0.0142000000923872 0.2102999985218048 -0.9599000215530396 0.18529999256134033
          0.06360000371932983 -0.9711999893188477 -0.2296999990940094 0.41990000009536743 -0.9074000120162964 -0.016599999740719795
          -0.10559999942779541 -0.9628999829292297 -0.2483000010251999 0.15950000286102295 -0.9872000217437744 -0.002099999925121665
          0.47200000286102295 -0.8776999711990356 0.08269999921321869 0.12120000272989273 -0.9926000237464905 0.0020000000949949026
          0.503600001335144 -0.8604000210762024 0.07840000092983246 -0.06270000338554382 -0.9939000010490417 0.0908999964594841
          -0.3917999863624573 -0.9136999845504761 0.10760000348091125 0.5600000023841858 -0.821399986743927 -0.10830000042915344
          0.15929999947547913 -0.9811999797821045 -0.1088000014424324 0.27720001339912415 -0.9607999920845032 0.004900000058114529
          0.09570000320672989 -0.9491999745368958 -0.299699991941452 0.5236999988555908 -0.807200014591217 -0.27230000495910645
          0.4819999933242798 -0.7182000279426575 -0.5019000172615051 -0.3682999908924103 -0.7771999835968018 0.5102999806404114
          -0.67330002784729 -0.739300012588501 -0.00860000029206276 -0.9591000080108643 -0.26489999890327454 0.10000000149011612
          -0.40869998931884766 -0.8374999761581421 0.3626999855041504 -0.6532999873161316 -0.29330000281333923 0.6980000138282776
          -0.4431999921798706 -0.6926000118255615 0.5690000057220459 -0.7181000113487244 -0.2159000039100647 0.6615999937057495
          -0.6952000260353088 -0.5304999947547913 0.48500001430511475 0.2939999997615814 -0.8543999791145325 0.4284999966621399
          -0.7978000044822693 -0.3188000023365021 -0.5117999911308289 0.6642000079154968 -0.6545000076293945 0.361299991607666
          -0.37290000915527344 -0.9168000221252441 -0.14300000667572021 -0.4189000129699707 -0.765500009059906 -0.48840001225471497
          -0.4075999855995178 -0.7882999777793884 0.4609000086784363 -0.4754999876022339 -0.5521000027656555 0.6848999857902527
          -0.427700012922287 -0.3215000033378601 0.8447999954223633 -0.3190000057220459 -0.6523000001907349 0.6876000165939331
          -0.7588000297546387 -0.1728000044822693 0.628000020980835 -0.6783000230789185 -0.1306000053882599 0.7231000065803528
          -0.3741999864578247 -0.16619999706745148 0.9122999906539917 0.5924999713897705 -0.04809999838471413 0.804099977016449
          0.6513000130653381 -0.7408000230789185 0.16410000622272491 -0.09459999948740005 -0.5968000292778015 -0.7968000173568726
          -0.05920000001788139 -0.9896000027656555 -0.131400004029274 0.6725000143051147 -0.7250999808311462 0.14810000360012054
          0.8622000217437744 -0.29829999804496765 0.4092999994754791 -0.5670999884605408 -0.7519999742507935 -0.335999995470047
          0.6740999817848206 -0.7263000011444092 0.13420000672340393 0.8167999982833862 -0.5626999735832214 0.12770000100135803
          0.1868000030517578 -0.8238999843597412 -0.5350000262260437 0.1851000040769577 -0.9667999744415283 -0.17599999904632568
          0.2754000127315521 -0.9562000036239624 -0.09950000047683716 0.3416000008583069 -0.7997000217437744 0.4936999976634979
          -0.47519999742507935 -0.8712000250816345 0.12330000102519989 -0.6858000159263611 -0.6801999807357788 0.25870001316070557
          0.0843999981880188 -0.5760999917984009 -0.8130000233650208 0.04050000011920929 -0.9778000116348267 0.20559999346733093
          -0.21729999780654907 -0.8815000057220459 0.41929998993873596 0.8086000084877014 -0.5763000249862671 -0.11909999698400497
          0.22669999301433563 -0.5590999722480774 -0.7975000143051147 0.18569999933242798 -0.8550999760627747 -0.48410001397132874
          0.040699999779462814 -0.9674000144004822 -0.2500999867916107 0.02810000069439411 -0.9929999709129333 -0.1143999993801117
          0.8044000267982483 -0.5170999765396118 -0.29249998927116394 0.8863999843597412 -0.3684999942779541 -0.2802000045776367
          0.257999986410141 -0.6834999918937683 -0.6827999949455261 0.3749000132083893 -0.3962000012397766 -0.838100016117096
          0.3725000023841858 -0.7508000135421753 -0.5454999804496765 0.5112000107765198 -0.72079998254776 -0.46810001134872437
          0.7096999883651733 -0.439300000667572 -0.5508000254631042 0.5659999847412109 -0.3788999915122986 -0.7321000099182129
          0.7681000232696533 -0.2786000072956085 -0.5764999985694885 -0.3571000099182129 -0.6949999928474426 0.6241000294685364
          -0.8226000070571899 -0.461899995803833 0.33169999718666077 -0.9210000038146973 -0.27309998869895935 0.2775999903678894
          0.3521000146865845 -0.7159000039100647 0.6029000282287598 -0.8974000215530396 0.3944999873638153 -0.19760000705718994
          -0.7856000065803528 0.44110000133514404 0.43389999866485596 -0.6179999709129333 0.36820000410079956 0.6947000026702881
          -0.8883000016212463 0.15060000121593475 0.43380001187324524 0.7213000059127808 -0.4927000105381012 0.4867999851703644
          -0.6086999773979187 -0.7904000282287598 0.06939999759197235 -0.6832000017166138 -0.4293999969959259 -0.5906000137329102
          -0.3043999969959259 -0.6075000166893005 0.7336999773979187 -0.3337000012397766 -0.3675999939441681 0.8680999875068665
          -0.36890000104904175 -0.2953000068664551 -0.8812999725341797 -0.4763000011444092 -0.1665000021457672 0.8633999824523926
          -0.3379000127315521 -0.22579999268054962 0.9136999845504761 -0.6359999775886536 -0.2062000036239624 0.7437000274658203
          -0.800000011920929 -0.13099999725818634 0.5855000019073486 -0.23149999976158142 0.1379999965429306 0.9629999995231628
          0.3476000130176544 0.19470000267028809 0.9172000288963318 -0.8996999859809875 0.32829999923706055 -0.2874999940395355
          0.8095999956130981 -0.5157999992370605 0.2800000011920929 -0.14710000157356262 -0.16840000450611115 -0.9746999740600586
          0.12919999659061432 -0.5479000210762024 0.8264999985694885 -0.9692000150680542 -0.03240000084042549 0.24420000612735748
          -0.8855000138282776 -0.4578999876976013 -0.07850000262260437 -0.5623999834060669 -0.5396999716758728 0.6265000104904175
          0.065700002014637 -0.23270000517368317 -0.970300018787384 0.9366999864578247 -0.33869999647140503 -0.08829999715089798
          0.26109999418258667 -0.24420000612735748 -0.933899998664856 0.8586999773979187 -0.2513999938964844 -0.44670000672340393
          0.49160000681877136 -0.1581999957561493 -0.8562999963760376 0.6732000112533569 -0.18140000104904175 -0.7168999910354614
          -0.6797999739646912 -0.7121000289916992 -0.17560000717639923 0.5437999963760376 -0.37790000438690186 -0.7493000030517578
          -0.8913999795913696 -0.40149998664855957 0.2102999985218048 -0.11299999803304672 -0.7741000056266785 0.6229000091552734
          0.5052000284194946 -0.6385999917984009 0.5805000066757202 -0.30880001187324524 -0.9283000230789185 -0.2071000039577484
          -0.3041999936103821 -0.8776000142097473 0.37059998512268066 0.09300000220537186 -0.9524000287055969 0.2904999852180481
          0.2475000023841858 -0.739300012588501 0.6262000203132629 -0.6256999969482422 -0.6664999723434448 0.40540000796318054
          -0.8406000137329102 -0.49149999022483826 -0.22789999842643738 -0.09669999778270721 -0.7164000272750854 0.6909999847412109
          -0.05400000140070915 -0.3255000114440918 0.9440000057220459 0.1906999945640564 -0.9265000224113464 -0.3244999945163727
          0.5056999921798706 -0.8424000144004822 0.18619999289512634 -0.9842000007629395 -0.046799998730421066 0.17059999704360962
          0.8237000107765198 -0.3617999851703644 0.4366999864578247 -0.3278000056743622 -0.4336000084877014 0.8393999934196472
          0.12999999523162842 -0.991100013256073 0.02969999983906746 -0.8414000272750854 0.5397999882698059 0.025599999353289604
          -0.8428000211715698 0.47530001401901245 0.2526000142097473 -0.9771999716758728 0.015599999576807022 0.21199999749660492
          -0.23549999296665192 -0.02810000069439411 -0.9714999794960022 -0.4616999924182892 -0.44760000705718994 0.7657999992370605
          -0.4025000035762787 -0.6358000040054321 0.6585999727249146 -0.335999995470047 -0.36320000886917114 0.8690000176429749
          -0.14720000326633453 -0.28049999475479126 0.9484999775886536 -0.9406999945640564 -0.015399999916553497 0.33889999985694885
          0.9398999810218811 -0.3077999949455261 0.14800000190734863 -0.7046999931335449 -0.2969000041484833 0.6444000005722046
          -0.033900000154972076 -0.05860000103712082 -0.9976999759674072 0.12409999966621399 -0.07289999723434448 -0.9896000027656555
          0.9228000044822693 -0.3499999940395355 -0.16099999845027924 0.31679999828338623 -0.1298000067472458 -0.9395999908447266
          0.8751000165939331 -0.34310001134872437 -0.34130001068115234 0.47769999504089355 -0.18539999425411224 -0.8586999773979187
          0.5982000231742859 -0.15410000085830688 -0.7864000201225281 0.7871999740600586 -0.28369998931884766 -0.5475000143051147
          -0.3702999949455261 -0.8119999766349792 0.451200008392334 -0.7070000171661377 -0.6413999795913696 0.29789999127388
          0.11060000211000443 -0.7799999713897705 0.6159999966621399 0.5382000207901001 -0.5116000175476074 0.6697999835014343
          -0.8141999840736389 -0.5180000066757202 0.2619999945163727 -0.6219000220298767 -0.7583000063896179 0.19539999961853027
          -0.38760000467300415 -0.8863999843597412 0.2529999911785126 0.32120001316070557 -0.9441999793052673 0.07240000367164612
          0.9607999920845032 -0.24709999561309814 -0.1256999969482422 0.7876999974250793 0.31940001249313354 -0.5267999768257141
          -0.8230000138282776 -0.5583000183105469 0.10509999841451645 0.7021999955177307 -0.42649999260902405 0.5701000094413757
          -0.6108999848365784 -0.7879999876022339 -0.07639999687671661 -0.010700000450015068 -0.8180999755859375 0.574999988079071
          0.3353999853134155 -0.7551000118255615 0.5633999705314636 0.18529999256134033 -0.7705000042915344 0.6098999977111816
          -0.6141999959945679 -0.7301999926567078 0.29919999837875366 -0.34599998593330383 -0.9337999820709229 0.09149999916553497
          0.4442000091075897 -0.42160001397132874 0.7904999852180481 -0.6139000058174133 -0.6610999703407288 -0.43140000104904175
          0.5206000208854675 -0.65420001745224 0.5486000180244446 -0.8823999762535095 -0.4702000021934509 0.019700000062584877
          0.8622000217437744 -0.2651999890804291 0.43149998784065247 -0.7120000123977661 -0.5342000126838684 -0.45570001006126404
          0.09120000153779984 -0.2517000138759613 0.9635000228881836 -0.6033999919891357 -0.765500009059906 -0.22360000014305115
          0.5940999984741211 -0.713100016117096 0.37209999561309814 0.4677000045776367 -0.5577999949455261 0.685699999332428
          -0.9416000247001648 -0.3366999924182892 -0.003100000089034438 0.9023000001907349 -0.22349999845027924 0.3684999942779541
          -0.4733999967575073 -0.23980000615119934 -0.847599983215332 -0.4803999960422516 -0.8769999742507935 0.0031999999191612005
          -0.3043000102043152 -0.949400007724762 -0.07699999958276749 0.20250000059604645 -0.8705999851226807 0.44839999079704285
          -0.9379000067710876 -0.2207999974489212 0.26759999990463257 -0.3402999937534332 -0.7128999829292297 0.6132000088691711
          0.1720999926328659 -0.5339000225067139 0.8277999758720398 -0.4936999976634979 -0.3919999897480011 0.7763000130653381
          -0.8032000064849854 -0.36390000581741333 0.4717000126838684 0.9032999873161316 -0.27140000462532043 0.33219999074935913
          -0.17649999260902405 0.003100000089034438 -0.9843000173568726 0.9496999979019165 -0.30809998512268066 0.055799998342990875
          0.727400004863739 -0.2603999972343445 -0.6348000168800354 0.685699999332428 -0.26989999413490295 -0.6759999990463257
          -0.6935999989509583 -0.5131999850273132 0.5055000185966492 -0.8140000104904175 -0.527400016784668 0.24330000579357147
          -0.2728999853134155 -0.5989000201225281 0.7529000043869019 0.36239999532699585 -0.37790000438690186 0.8519999980926514
          -0.9240000247955322 -0.22630000114440918 0.30809998512268066 0.7592999935150146 0.5062999725341797 -0.40880000591278076
          0.9279999732971191 0.029600000008940697 0.37139999866485596 -0.7418000102043152 -0.6509000062942505 0.16169999539852142
          0.76910001039505 -0.15070000290870667 0.6211000084877014 -0.6049000024795532 -0.7954999804496765 -0.03530000150203705
          -0.7483000159263611 -0.5845999717712402 0.313400000333786 -0.2508000135421753 -0.9162999987602234 0.31220000982284546
          -0.4636000096797943 -0.7699999809265137 0.43849998712539673 -0.007499999832361937 -0.8745999932289124 0.4848000109195709
          0.18880000710487366 -0.8579999804496765 0.47769999504089355 0.39800000190734863 -0.8134999871253967 0.42399999499320984
          -0.49129998683929443 -0.8327999711036682 0.2549000084400177 0.21930000185966492 -0.6104999780654907 0.7609999775886536
          0.8532999753952026 -0.15299999713897705 0.4984999895095825 -0.5806000232696533 -0.6078000068664551 -0.541700005531311
          0.78329998254776 -0.5625 0.2646999955177307 -0.6349999904632568 -0.5690000057220459 -0.5224999785423279
          0.507099986076355 -0.5885999798774719 0.6295999884605408 -0.6952000260353088 -0.7124000191688538 0.09640000015497208
          -0.6097000241279602 -0.6654999852180481 -0.43059998750686646 0.755299985408783 -0.43790000677108765 0.48750001192092896
          -0.5006999969482422 -0.3580000102519989 -0.788100004196167 0.5800999999046326 -0.5558000206947327 0.5954999923706055
          -0.8738999962806702 -0.4722000062465668 0.11540000140666962 0.8607000112533569 -0.12520000338554382 0.4936000108718872
          -0.36980000138282776 -0.12860000133514404 -0.920199990272522 -0.5460000038146973 -0.4009000062942505 0.7355999946594238
          -0.08739999681711197 -0.4510999917984009 0.8881999850273132 0.9179999828338623 -0.32510000467300415 0.22699999809265137
          -0.0706000030040741 -0.015200000256299973 -0.9973999857902527 0.04820000007748604 -0.09160000085830688 -0.9945999979972839
          0.10029999911785126 -0.19760000705718994 -0.9750999808311462 0.3377000093460083 -0.23350000381469727 -0.9118000268936157
          0.5580000281333923 -0.3456000089645386 -0.7544000148773193 -0.9125999808311462 -0.3472999930381775 0.21549999713897705
          0.11460000276565552 -0.7677000164985657 0.6305000185966492 -0.5723000168800354 -0.6068000197410583 0.5515000224113464
          -0.8428000211715698 0.5370000004768372 0.03590000048279762 -0.16920000314712524 0.7387999892234802 0.6523000001907349
          0.48840001225471497 0.7089999914169312 -0.5088000297546387 -0.819599986076355 0.05689999833703041 0.5699999928474426
          -0.5422999858856201 0.015699999406933784 0.8399999737739563 -0.017799999564886093 -0.1647000014781952 0.9861999750137329
          0.46480000019073486 0.13660000264644623 0.8748000264167786 -0.978600025177002 -0.035999998450279236 0.20260000228881836
          0.18850000202655792 -0.8269000053405762 0.5297999978065491 0.2903999984264374 -0.5299000144004822 0.7968000173568726
          -0.8468000292778015 -0.10010000318288803 0.5223000049591064 -0.8366000056266785 0.33489999175071716 0.4336000084877014
          -0.3630000054836273 0.11010000109672546 0.9253000020980835 -0.11429999768733978 -0.30720001459121704 0.9448000192642212
          -0.6560999751091003 -0.6801999807357788 0.32679998874664307 -0.8069000244140625 -0.42579999566078186 0.4092999994754791
          -0.9088000059127808 -0.38920000195503235 -0.1500999927520752 -0.9962000250816345 0.022600000724196434 0.08380000293254852
          0.22930000722408295 -0.9563999772071838 0.181099995970726 -0.33329999446868896 -0.4489000141620636 0.8291000127792358
          0.08730000257492065 -0.42809998989105225 0.8995000123977661 0.3808000087738037 -0.32600000500679016 0.8652999997138977
          -0.7368000149726868 -0.6611999869346619 0.14079999923706055 -0.715399980545044 -0.692300021648407 -0.09459999948740005
          0.8876000046730042 0.10419999808073044 0.4487000107765198 -0.6699000000953674 -0.23489999771118164 -0.7044000029563904
          0.07490000128746033 -0.8960000276565552 -0.4375999867916107 0.7608000040054321 -0.03370000049471855 0.6481000185012817
          0.8873999714851379 0.09399999678134918 0.4514000117778778 0.765500009059906 0.01489999983459711 0.6431999802589417
          0.9003000259399414 0.2281000018119812 -0.3707999885082245 0.20819999277591705 -0.18709999322891235 -0.9599999785423279
          -0.6743999719619751 -0.28610000014305115 -0.6805999875068665 0.8395000100135803 -0.18129999935626984 0.5123000144958496
          -0.6872000098228455 -0.6923999786376953 -0.2198999971151352 0.14390000700950623 -0.2443999946117401 0.958899974822998
          -0.6492000222206116 -0.5683000087738037 0.5055999755859375 0.4805999994277954 -0.43140000104904175 0.7634999752044678
          -0.10180000215768814 -0.7174999713897705 0.6891000270843506 -0.7847999930381775 -0.598800003528595 0.1599999964237213
          -0.3788999915122986 -0.44760000705718994 0.8100000023841858 -0.5680000185966492 -0.6305999755859375 0.5289000272750854
          -0.1809999942779541 0.05779999867081642 -0.9818000197410583 -0.10760000348091125 -0.055799998342990875 -0.9926000237464905
          0.8445000052452087 -0.5091000199317932 0.16599999368190765 0.8147000074386597 -0.5730000138282776 -0.08940000087022781
          0.7603999972343445 -0.5716999769210815 -0.30820000171661377 0.3871999979019165 -0.3763999938964844 -0.84170001745224
          0.6107000112533569 -0.4000999927520752 -0.6833999752998352 0.5995000004768372 -0.5023999810218811 -0.6230999827384949
          0.6335999965667725 -0.5630999803543091 -0.5304999947547913 -0.8970000147819519 -0.04690000042319298 0.43950000405311584
          -0.22920000553131104 -0.3991999924182892 0.8877999782562256 -0.9990000128746033 0.012900000438094139 0.04390000179409981
          0.41990000009536743 -0.2597000002861023 0.8695999979972839 -0.7731000185012817 -0.05510000139474869 0.6319000124931335
          0.09870000183582306 0.41679999232292175 0.9035999774932861 -0.9366000294685364 0.34619998931884766 0.05339999869465828
          0.4544000029563904 -0.03620000183582306 0.8901000022888184 -0.8450999855995178 0.1298999935388565 0.5185999870300293
          -0.7167999744415283 0.2904999852180481 0.633899986743927 -0.32589998841285706 0.14169999957084656 0.9347000122070312
          0.00570000009611249 -0.14970000088214874 0.9886999726295471 -0.7825000286102295 -0.6171000003814697 -0.08259999752044678
          -0.6062999963760376 -0.5602999925613403 0.5644000172615051 -0.5442000031471252 -0.3337000012397766 0.7698000073432922
          0.789900004863739 0.3000999987125397 0.5347999930381775 -0.8737999796867371 0.33219999074935913 0.35519999265670776
          -0.4627000093460083 0.5529999732971191 0.6929000020027161 0.42980000376701355 0.37299999594688416 0.8223000168800354
          -0.9508000016212463 0.1737000048160553 -0.2565999925136566 0.7052000164985657 0.6309999823570251 0.32339999079704285
          0.26649999618530273 0.8661999702453613 -0.4226999878883362 0.13570000231266022 0.5879999995231628 -0.7973999977111816
          -0.49799999594688416 0.4426000118255615 -0.7457000017166138 0.6628999710083008 0.34310001134872437 0.6654999852180481
          -0.6316999793052673 -0.73580002784729 -0.24400000274181366 0.83160001039505 0.19679999351501465 0.5192999839782715
          0.2549999952316284 0.00800000037997961 0.9668999910354614 -0.953499972820282 -0.2987000048160553 -0.04089999943971634
          0.49729999899864197 -0.17350000143051147 0.8500999808311462 -0.39649999141693115 -0.07609999924898148 -0.914900004863739
          -0.5059999823570251 -0.499099999666214 0.703499972820282 0.2451000064611435 -0.4560999870300293 0.8554999828338623
          -0.21979999542236328 0.09149999916553497 -0.9711999893188477 -0.499099999666214 -0.8589000105857849 0.11460000276565552
          0.703000009059906 -0.027699999511241913 0.7106999754905701 -0.21979999542236328 0.15770000219345093 -0.9627000093460083
          0.7541999816894531 -0.4291999936103821 0.4970000088214874 0.6626999974250793 -0.6916999816894531 0.28700000047683716
          0.6035000085830688 -0.7965999841690063 0.03319999948143959 0.583299994468689 -0.7936999797821045 -0.1728000044822693
          0.2085999995470047 -0.32100000977516174 -0.923799991607666 0.525600016117096 -0.761900007724762 -0.3785000145435333
          0.4848000109195709 -0.5092999935150146 -0.7110000252723694 -0.8682000041007996 0.390500009059906 0.3061000108718872
          -0.46320000290870667 0.1785999983549118 0.8680999875068665 0.06800000369548798 0.2409999966621399 0.9681000113487244
          -0.8399999737739563 0.5065000057220459 -0.19460000097751617 0.3808000087738037 0.6262000203132629 0.6802999973297119
          -0.732699990272522 -0.447299987077713 0.5128999948501587 -0.5220000147819519 -0.2565999925136566 0.8133999705314636
          -0.4729999899864197 -0.021199999377131462 0.8808000087738037 -0.46639999747276306 0.4916999936103821 0.7354000210762024
          0.04910000041127205 0.7060999870300293 0.7063999772071838 -0.47749999165534973 0.8169999718666077 -0.32330000400543213
          0.5824999809265137 0.765999972820282 0.2720000147819519 -0.7059999704360962 0.5496000051498413 0.4465999901294708
          -0.6007999777793884 0.708299994468689 0.37049999833106995 -0.4690000116825104 0.8815000057220459 -0.0544000007212162
          -0.21559999883174896 0.8482000231742859 0.4837999939918518 -0.6366000175476074 0.3375000059604645 0.6934000253677368
          0.5674999952316284 0.5533999800682068 0.6096000075340271 -0.5397999882698059 0.6868000030517578 0.48669999837875366
          -0.1264999955892563 0.8550999760627747 -0.5027999877929688 0.20980000495910645 0.9283000230789185 -0.3070000112056732
          0.19820000231266022 0.840399980545044 -0.5044999718666077 0.13819999992847443 0.9872999787330627 0.07819999754428864
          -0.6832000017166138 0.6410999894142151 0.3495999872684479 -0.7257999777793884 0.4862000048160553 0.48660001158714294
          -0.28850001096725464 0.8353999853134155 0.46790000796318054 -0.07050000131130219 0.9908000230789185 -0.11590000241994858
          0.429500013589859 0.8981999754905701 0.09309999644756317 -0.800599992275238 -0.5964999794960022 -0.05700000002980232
          -0.8195000290870667 0.3052999973297119 0.48500001430511475 -0.4523000121116638 0.34139999747276306 0.8238999843597412
          0.1331000030040741 0.6604999899864197 0.7389000058174133 -0.2069000005722046 0.061500001698732376 0.9764000177383423
          -0.7730000019073486 0.6327000260353088 -0.046799998730421066 -0.09799999743700027 0.8844000101089478 0.4562999904155731
          0.08640000224113464 0.7918000221252441 0.6046000123023987 -0.5695000290870667 -0.8220000267028809 -0.0010000000474974513
          -0.7936999797821045 -0.5486999750137329 0.2624000012874603 0.7064999938011169 0.3264999985694885 0.6279000043869019
          -0.7617999911308289 0.26910001039505005 -0.5892000198364258 -0.3073999881744385 -0.29179999232292175 0.9057000279426575
          -0.802299976348877 -0.21629999577999115 0.5564000010490417 -0.828499972820282 0.1761000007390976 0.5315999984741211
          -0.44670000672340393 0.609000027179718 0.6553999781608582 -0.390500009059906 -0.36899998784065247 0.8434000015258789
          0.05979999899864197 -0.6227999925613403 0.7800999879837036 -0.3418000042438507 -0.7457000017166138 0.5719000101089478
          -0.4345000088214874 0.10289999842643738 -0.8948000073432922 0.550000011920929 -0.3440000116825104 0.7609999775886536
          0.5152999758720398 -0.6017000079154968 0.6103000044822693 0.40149998664855957 -0.8184000253677368 0.41100001335144043
          -0.04960000142455101 -0.15389999747276306 -0.9868000149726868 0.3714999854564667 -0.9154000282287598 0.15479999780654907
          0.24300000071525574 -0.9363999962806702 0.2533000111579895 0.45660001039505005 -0.7993999719619751 0.390500009059906
          0.027000000700354576 -0.21369999647140503 -0.9764999747276306 0.2784000039100647 -0.9589999914169312 -0.053300000727176666
          0.14839999377727509 -0.9781000018119812 -0.1460999995470047 0.382999986410141 -0.9229999780654907 -0.03790000081062317
          0.6011000275611877 -0.5321000218391418 0.5963000059127808 0.3059999942779541 -0.3668999969959259 -0.8784999847412109
          0.3116999864578247 -0.9351000189781189 -0.16850000619888306 0.6351000070571899 -0.7303000092506409 0.2515999972820282
          0.32670000195503235 -0.6934999823570251 -0.6421999931335449 0.2915000021457672 -0.7975999712944031 -0.5281000137329102
          0.30399999022483826 -0.8920999765396118 -0.334199994802475 0.25450000166893005 -0.930400013923645 -0.2639000117778778
          0.7337999939918518 -0.6757000088691711 0.07000000029802322 0.41339999437332153 -0.8417999744415283 -0.34709998965263367
          0.6104000210762024 -0.7659000158309937 -0.2021999955177307 -0.4496000111103058 0.7372999787330627 0.5041999816894531
          -0.5210000276565552 0.8331999778747559 -0.18529999256134033 -0.00419999985024333 0.9943000078201294 0.10679999738931656
          -0.26010000705718994 -0.06499999761581421 0.9634000062942505 -0.8974999785423279 -0.43880000710487366 0.04490000009536743
          -0.24740000069141388 0.22579999268054962 0.9422000050544739 -0.08100000023841858 0.5813999772071838 0.809499979019165
          0.375900000333786 0.6664999723434448 0.6438000202178955 -0.8694999814033508 0.4350000023841858 0.23420000076293945
          -0.5090000033378601 0.053700000047683716 0.8590999841690063 -0.6682999730110168 0.04560000076889992 0.7425000071525574
          -0.29510000348091125 0.3571999967098236 0.8862000107765198 -0.03709999844431877 0.7355999946594238 0.6764000058174133
          -0.6851999759674072 -0.37049999833106995 0.6270999908447266 -0.9103000164031982 0.03229999914765358 0.41269999742507935
          -0.6065000295639038 -0.5249999761581421 0.5971999764442444 -0.7803000211715698 -0.573199987411499 0.25029999017715454
          0.588100016117096 0.5602999925613403 0.583299994468689 -0.4366999864578247 -0.25940001010894775 0.8614000082015991
          -0.7028999924659729 -0.14669999480247498 0.695900022983551 -0.16680000722408295 0.36010000109672546 0.917900025844574
          -0.7506999969482422 0.2257000058889389 0.6208999752998352 -0.5087000131607056 0.3077000081539154 -0.804099977016449
          0.506600022315979 0.27160000801086426 0.8183000087738037 0.3817000091075897 -0.13650000095367432 0.9140999913215637
          -0.24719999730587006 0.09430000185966492 -0.9643999934196472 0.3702999949455261 -0.32760000228881836 0.8691999912261963
          0.4438999891281128 -0.6245999932289124 0.6424999833106995 0.4487999975681305 -0.376800000667572 0.8102999925613403
          -0.35120001435279846 0.03400000184774399 -0.935699999332428 -0.19599999487400055 -0.1453000009059906 -0.9697999954223633
          0.4837999939918518 -0.47699999809265137 0.7336999773979187 0.10989999771118164 -0.2734000086784363 -0.9556000232696533
          0.8037999868392944 -0.4307999908924103 0.41019999980926514 0.2741999924182892 -0.39660000801086426 -0.8761000037193298
          0.45410001277923584 -0.5662000179290771 -0.6879000067710876 0.26460000872612 -0.5723999738693237 -0.7760999798774719
          0.14630000293254852 -0.8086000084877014 -0.5698999762535095 0.9083999991416931 -0.40849998593330383 0.0892999991774559
          0.13279999792575836 -0.8434000015258789 -0.5206000208854675 0.27619999647140503 -0.8903999924659729 -0.3617999851703644
          0.47510001063346863 -0.767300009727478 -0.43070000410079956 0.8586000204086304 -0.486299991607666 -0.16220000386238098
          0.27390000224113464 -0.751800000667572 -0.5997999906539917 0.4410000145435333 -0.7229999899864197 -0.5317999720573425