<?xml version="1.0"?>
<VTKFile type="PolyData" version="0.1" byte_order="LittleEndian" header_type="UInt32" compressor="vtkZLibDataCompressor">
  <PolyData>
    <FieldData>
      <Array type="String" Name="MaterialNames" NumberOfTuples="1" format="ascii">
        109 97 116 101 114 105 97 108 95 48 0
      </Array>
      <Array type="String" Name="MaterialLibraries" NumberOfTuples="1" format="ascii">
        109 97 116 101 114 105 97 108 46 109 116 108 0
      </Array>
    </FieldData>
    <Piece NumberOfPoints="664" NumberOfVerts="0" NumberOfLines="0" NumberOfStrips="0" NumberOfPolys="1277">
      <PointData Normals="Normals">
        <DataArray type="Float32" Name="Normals" NumberOfComponents="3" format="ascii" RangeMin="0.9999301078633359" RangeMax="1.0000692745849051">
          -0.00430000014603138 0.11330000311136246 0.9936000108718872 0.1476999968290329 0.23010000586509705 0.961899995803833
          -0.08060000091791153 0.21979999542236328 0.9721999764442444 -0.024700000882148743 -0.9940999746322632 -0.10599999874830246
          -0.3375999927520752 -0.9408000111579895 -0.02930000051856041 -0.03189999982714653 -0.9613999724388123 -0.2734000086784363
          0.7469000220298767 0.4503999948501587 0.48910000920295715 0.661300003528595 0.38839998841285706 0.641700029373169
          0.6200000047683716 0.3100999891757965 0.72079998254776 0.06210000067949295 0.516700029373169 -0.8539000153541565
          0.21799999475479126 0.5419999957084656 -0.8116000294685364 0.2838999927043915 0.49880000948905945 -0.8188999891281128
          -0.32409998774528503 -0.8485000133514404 -0.41830000281333923 -0.26669999957084656 -0.8515999913215637 -0.4512999951839447
          -0.06549999862909317 -0.9379000067710876 -0.3407999873161316 -0.7645999789237976 0.05990000069141388 0.641700029373169
          -0.6194999814033508 0.08829999715089798 0.7799999713897705 -0.7257000207901001 0.15919999778270721 0.6693000197410583
          -0.6625000238418579 0.5099999904632568 -0.5486000180244446 -0.8464999794960022 0.3856000006198883 -0.3671000003814697
          -0.7753999829292297 0.4417000114917755 -0.451200008392334 -0.6039000153541565 -0.006000000052154064 -0.796999990940094
          -0.7200000286102295 -0.09740000218153 -0.6870999932289124 -0.7767999768257141 0.06939999759197235 -0.6258000135421753
          -0.01899999938905239 -0.8651999831199646 -0.5012000203132629 -0.44110000133514404 -0.8974000215530396 0.004699999932199717
          -0.4052000045776367 -0.8669000267982483 -0.2903999984264374 -0.7721999883651733 -0.4392000138759613 -0.45910000801086426
          -0.8715000152587891 -0.44670000672340393 -0.2021999955177307 -0.9550999999046326 -0.18119999766349792 -0.23440000414848328
          0.6482999920845032 0.5985000133514404 -0.4706999957561493 0.5799999833106995 0.5633000135421753 -0.5884000062942505
          0.4941999912261963 0.6732000112533569 -0.550000011920929 0.31949999928474426 0.34310001134872437 0.8833000063896179
          0.23929999768733978 0.5268999934196472 0.815500020980835 0.1071000024676323 0.36800000071525574 0.9236000180244446
          -0.23800000548362732 -0.7778000235557556 -0.5817000269889832 -0.44209998846054077 -0.8245999813079834 -0.3528999984264374
          -0.2542000114917755 -0.8398000001907349 -0.4796999990940094 -0.5424000024795532 -0.17810000479221344 0.8209999799728394
          -0.5670999884605408 -0.34049999713897705 0.75 -0.5422000288963318 -0.6061000227928162 0.5820000171661377
          0.3630000054836273 0.2696000039577484 0.8919000029563904 0.195700004696846 0.5023999810218811 0.842199981212616
          0.5109000205993652 0.4065000116825104 0.7574999928474426 0.49720001220703125 0.5978000164031982 0.6287999749183655
          0.47119998931884766 0.4675000011920929 0.7479000091552734 0.6244000196456909 0.5196999907493591 0.5831000208854675
          0.8116999864578247 0.10989999771118164 0.5737000107765198 0.8392000198364258 0.23759999871253967 0.48919999599456787
          0.7168999910354614 0.11289999634027481 0.6880000233650208 0.8032000064849854 0.5526999831199646 0.22220000624656677
          0.8403000235557556 0.4616999924182892 0.2840000092983246 0.7107999920845032 0.625 0.32260000705718994
          0.44449999928474426 -0.6478000283241272 -0.6187000274658203 0.41110000014305115 -0.5027999877929688 -0.7603999972343445
          0.41429999470710754 -0.6388000249862671 -0.6482999920845032 0.5945000052452087 -0.4862000048160553 -0.640500009059906
          0.3619000017642975 -0.49470001459121704 -0.7900999784469604 0.2605000138282776 -0.6438000202178955 -0.7195000052452087
          -0.6007000207901001 0.7896999716758728 -0.12470000237226486 -0.4074999988079071 0.9117000102996826 0.052000001072883606
          -0.420199990272522 0.899399995803833 -0.12080000340938568 0.4244999885559082 0.8948000073432922 -0.1379999965429306
          0.5138000249862671 0.8276000022888184 -0.22609999775886536 0.27970001101493835 0.9110999703407288 -0.302700012922287
          -0.7077000141143799 0.6617000102996826 0.2476000040769577 -0.6696000099182129 0.5856999754905701 0.45669999718666077
          -0.49799999594688416 0.7799999713897705 0.3790000081062317 -0.9406999945640564 0.10729999840259552 0.32179999351501465
          -0.8931000232696533 0.05119999870657921 0.44699999690055847 -0.8398000001907349 0.12929999828338623 0.5273000001907349
          -0.4228000044822693 -0.4147999882698059 0.8057000041007996 -0.3718000054359436 -0.03350000083446503 0.9276999831199646
          -0.45879998803138733 -0.13750000298023224 0.8777999877929688 0.2020999938249588 0.21529999375343323 0.9553999900817871
          0.3246999979019165 0.10620000213384628 0.9398999810218811 0.11640000343322754 -0.0003000000142492354 0.9932000041007996
          0.7631999850273132 0.6191999912261963 0.18469999730587006 -0.07649999856948853 -0.15600000321865082 -0.9847999811172485
          -0.08370000123977661 0.1071000024676323 -0.9907000064849854 0.16820000112056732 0.17589999735355377 -0.9699000120162964
          -0.6995000243186951 0.25609999895095825 -0.6672000288963318 -0.6596999764442444 0.15129999816417694 -0.7361999750137329
          -0.7807999849319458 0.2513999938964844 -0.5720000267028809 -0.007699999958276749 -0.4129999876022339 -0.9107000231742859
          -0.08990000188350677 -0.35199999809265137 -0.9316999912261963 -0.05920000001788139 -0.5397999882698059 -0.8396999835968018
          -0.890999972820282 0.4124999940395355 -0.18950000405311584 -0.8144999742507935 0.51419997215271 -0.2685999870300293
          -0.9767000079154968 -0.10459999740123749 0.18709999322891235 -0.9847000241279602 -0.17440000176429749 0.006399999838322401
          -0.9624999761581421 -0.24210000038146973 0.12240000069141388 -0.20340000092983246 -0.8288999795913696 -0.5210999846458435
          -0.4779999852180481 -0.7545999884605408 -0.4496000111103058 -0.3555000126361847 -0.6110000014305115 -0.7073000073432922
          0.5141000151634216 -0.3571999967098236 -0.7797999978065491 0.6492999792098999 -0.3853999972343445 -0.6556000113487244
          -0.2295999974012375 -0.5335000157356262 -0.8141000270843506 -0.031300000846385956 -0.59579998254776 -0.8025000095367432
          -0.3801000118255615 -0.46950000524520874 -0.7968999743461609 0.3652999997138977 -0.6136999726295471 0.6998999714851379
          0.5385000109672546 -0.4043999910354614 0.7391999959945679 0.6693999767303467 -0.5108000040054321 0.5394999980926514
          -0.35830000042915344 -0.7226999998092651 -0.5910000205039978 0.06689999997615814 -0.351500004529953 -0.9337999820709229
          -0.25040000677108765 -0.6323000192642212 -0.7332000136375427 0.4007999897003174 0.5072000026702881 -0.7628999948501587
          0.5156000256538391 0.48980000615119934 -0.7031000256538391 0.382099986076355 0.46950000524520874 -0.7960000038146973
          0.36640000343322754 0.1745000034570694 -0.9139000177383423 0.21699999272823334 -0.1177000030875206 -0.9690999984741211
          0.21359999477863312 -0.15620000660419464 -0.9642999768257141 0.1598999947309494 0.9370999932289124 -0.31029999256134033
          0.10610000044107437 0.8770999908447266 -0.4684000015258789 -0.10130000114440918 0.9537000060081482 -0.2831999957561493
          -0.5042999982833862 0.657800018787384 -0.5594000220298767 -0.6193000078201294 0.6744999885559082 -0.4018000066280365
          -0.33730000257492065 0.7527999877929688 -0.5652999877929688 0.3772999942302704 0.5245000123977661 0.7633000016212463
          0.4546999931335449 0.4645000100135803 0.7598999738693237 0.37369999289512634 0.3953999876976013 0.8391000032424927
          0.16750000417232513 0.5572999715805054 0.8131999969482422 -0.01489999983459711 0.49230000376701355 0.8702999949455261
          -0.07339999824762344 0.4429999887943268 0.8934999704360962 -0.5665000081062317 -0.6604999899864197 0.4927999973297119
          -0.44859999418258667 -0.8769999742507935 0.17239999771118164 -0.16619999706745148 -0.753600001335144 -0.6359999775886536
          -0.07150000333786011 -0.9000999927520752 -0.42980000376701355 -0.012000000104308128 -0.8152999877929688 -0.5788999795913696
          -0.040300000458955765 0.010400000028312206 0.9991000294685364 -0.7598999738693237 -0.11110000312328339 0.640500009059906
          -0.5925999879837036 -0.2094999998807907 0.7778000235557556 -0.6276000142097473 -0.0560000017285347 0.7764999866485596
          0.8827999830245972 0.3828999996185303 -0.27230000495910645 0.8230000138282776 0.38920000195503235 -0.41370001435279846
          0.7900000214576721 0.47130000591278076 -0.3919999897480011 0.885200023651123 0.11400000005960464 0.4510999917984009
          0.9319999814033508 0.17880000174045563 0.31529998779296875 -0.7360000014305115 -0.28060001134872437 0.6159999966621399
          -0.6121000051498413 -0.1080000028014183 0.7833999991416931 -0.638700008392334 -0.11670000106096268 0.7605000138282776
          -0.907800018787384 -0.06159999966621399 0.414900004863739 -0.809499979019165 -0.08030000329017639 0.58160001039505
          -0.9160000085830688 -0.01360000018030405 0.4009000062942505 -0.9593999981880188 0.27219998836517334 -0.07370000332593918
          -0.8998000025749207 0.3190000057220459 -0.29750001430511475 -0.9337000250816345 0.322299987077713 0.15600000321865082
          -0.8906000256538391 0.32109999656677246 0.3222000002861023 -0.8675000071525574 0.41819998621940613 0.26930001378059387
          0.42100000381469727 -0.7365999817848206 0.5292999744415283 0.6608999967575073 -0.4117000102996826 0.6273999810218811
          -0.1526000052690506 -0.5 -0.8525000214576721 -0.250900000333786 -0.49790000915527344 -0.8300999999046326
          -0.06610000133514404 -0.9603000283241272 -0.2711000144481659 -0.767799973487854 -0.6294000148773193 -0.11999999731779099
          -0.6575000286102295 -0.5461999773979187 -0.51910001039505 -0.7570000290870667 -0.5539000034332275 -0.3465000092983246
          0.7527999877929688 0.3880999982357025 -0.5317000150680542 0.7900999784469604 0.49050000309944153 -0.3677000105381012
          0.8187999725341797 0.527899980545044 -0.22529999911785126 0.24549999833106995 -0.0731000006198883 -0.9666000008583069
          0.3328000009059906 0.19349999725818634 -0.9229000210762024 0.5331000089645386 0.29249998927116394 -0.7939000129699707
          0.6223999857902527 -0.7271000146865845 -0.2897000014781952 0.4169999957084656 -0.7723000049591064 -0.47929999232292175
          0.5954999923706055 -0.5882999897003174 -0.546999990940094 -0.164900004863739 0.058400001376867294 -0.9846000075340271
          -0.24860000610351562 0.10199999809265137 -0.9631999731063843 0.07109999656677246 -0.18459999561309814 -0.9801999926567078
          -0.06790000200271606 0.9704999923706055 0.23149999976158142 -0.16930000483989716 0.9847000241279602 -0.042500000447034836
          0.42590001225471497 0.6053000092506409 0.6725000143051147 0.0940999984741211 -0.784500002861023 0.6129999756813049
          -0.06650000065565109 -0.9132999777793884 0.4016999900341034 0.2150000035762787 -0.907800018787384 0.36010000109672546
          0.5435000061988831 0.4253000020980835 0.7236999869346619 0.5224000215530396 0.37689998745918274 0.7649000287055969
          0.7189000248908997 0.6355999708175659 0.28139999508857727 0.6518999934196472 0.7581999897956848 0.015799999237060547
          0.6452000141143799 0.7257000207901001 0.23890000581741333 0.9035999774932861 0.4212000072002411 0.07810000330209732
          0.9035000205039978 0.2930999994277954 0.31279999017715454 0.9383999705314636 0.3264000117778778 0.11320000141859055
          -0.4674000144004822 0.0731000006198883 -0.8809999823570251 -0.545799970626831 0.1914999932050705 -0.8156999945640564
          -0.41940000653266907 0.19740000367164612 -0.8860999941825867 -0.3240000009536743 0.6111000180244446 -0.7221999764442444
          -0.2689000070095062 0.2858000099658966 0.9197999835014343 -0.3675999939441681 0.08259999752044678 0.9262999892234802
          -0.531499981880188 -0.03359999880194664 0.8464000225067139 -0.2703999876976013 -0.9160000085830688 -0.2962000072002411
          0.18080000579357147 -0.9832000136375427 0.024000000208616257 0.2854999899864197 -0.8716999888420105 -0.3982999920845032
          0.15850000083446503 -0.8500000238418579 -0.5023000240325928 -0.3384000062942505 -0.8012999892234802 -0.4932999908924103
          0.0008999999845400453 -0.807200014591217 -0.5903000235557556 0.0010999999940395355 0.7491000294685364 -0.6624000072479248
          0.11379999667406082 0.6291000247001648 -0.7689999938011169 -0.1632000058889389 0.6895999908447266 -0.7056000232696533
          0.5562999844551086 0.7253999710083008 -0.40540000796318054 0.3921000063419342 0.8337000012397766 -0.3889000117778778
          0.4602000117301941 0.8047999739646912 -0.3749000132083893 -0.3091999888420105 -0.6486999988555908 -0.6953999996185303
          -0.3278999924659729 -0.39640000462532043 -0.8575000166893005 -0.5534999966621399 -0.4447999894618988 -0.7041000127792358
          -0.9952999949455261 -0.09669999778270721 -0.004800000227987766 -0.7293000221252441 -0.6829000115394592 0.041999999433755875
          -0.5796999931335449 -0.4546999931335449 -0.6761000156402588 0.44909998774528503 0.28940001130104065 0.845300018787384
          0.5465999841690063 0.11339999735355377 0.8296999931335449 0.49729999899864197 0.23240000009536743 0.8359000086784363
          0.5795000195503235 0.2567000091075897 0.7735000252723694 -0.3025999963283539 -0.8687000274658203 -0.3921999931335449
          -0.11949999630451202 -0.6593999862670898 -0.7422000169754028 -0.3720000088214874 -0.6491000056266785 -0.6635000109672546
          0.40290001034736633 -0.6618000268936157 -0.6322000026702881 0.05429999902844429 -0.8062000274658203 -0.5891000032424927
          -0.9211999773979187 -0.06710000336170197 -0.3833000063896179 -0.8783000111579895 0.13259999454021454 -0.4593999981880188
          -0.847599983215332 -0.13860000669956207 -0.5123000144958496 -0.9876999855041504 0.0843999981880188 -0.13169999420642853
          -0.9998999834060669 0.008200000040233135 0.014100000262260437 -0.9952999949455261 0.09390000253915787 0.0215000007301569
          0.1559000015258789 0.645799994468689 0.7473999857902527 0.04259999841451645 0.6909999847412109 0.7215999960899353
          -0.25699999928474426 0.570900022983551 0.7797999978065491 0.35249999165534973 0.6333000063896179 0.6888999938964844
          0.19769999384880066 0.8592000007629395 0.47189998626708984 0.2176000028848648 0.7577000260353088 0.6152999997138977
          0.499099999666214 0.5260999798774719 -0.6884999871253967 0.8169999718666077 0.5095000267028809 -0.2700999975204468
          -0.08980000019073486 -0.7401999831199646 -0.6662999987602234 -0.008999999612569809 -0.7095999717712402 -0.7045000195503235
          -0.051899999380111694 -0.7411999702453613 -0.6693000197410583 -0.4133000075817108 -0.7472000122070312 -0.5205000042915344
          -0.5935999751091003 -0.7312999963760376 -0.335999995470047 0.6858000159263611 0.15639999508857727 0.7106999754905701
          0.7235999703407288 0.025599999353289604 0.6897000074386597 0.39480000734329224 0.4334000051021576 0.8101000189781189
          -0.8605999946594238 -0.05719999969005585 0.5060999989509583 -0.7450000047683716 -0.24469999969005585 0.6205999851226807
          -0.6913999915122986 -0.1597999930381775 0.7045999765396118 -0.7804999947547913 -0.6169999837875366 0.10080000013113022
          -0.9350000023841858 -0.33340001106262207 0.12049999833106995 -0.7073000073432922 -0.6650000214576721 -0.23960000276565552
          -0.44839999079704285 -0.8896999955177307 -0.08560000360012054 -0.6446999907493591 -0.7626000046730042 -0.05400000140070915
          0.510699987411499 -0.5615000128746033 -0.6510000228881836 0.2290000021457672 -0.7770000100135803 -0.5863000154495239
          0.7404000163078308 -0.531000018119812 -0.412200003862381 0.1647000014781952 -0.6001999974250793 0.7827000021934509
          0.8823999762535095 -0.3935000002384186 0.2578999996185303 -0.13779999315738678 -0.9332000017166138 0.33169999718666077
          -0.08179999887943268 0.25099998712539673 -0.9645000100135803 0.04430000111460686 0.4302000105381012 -0.9017000198364258
          0.12139999866485596 0.35850000381469727 -0.925599992275238 -0.5134999752044678 0.3815999925136566 -0.7684999704360962
          -0.3046000003814697 0.4115000069141388 -0.859000027179718 -0.30730000138282776 0.25099998712539673 -0.917900025844574
          0.014399999752640724 0.6281999945640564 0.777899980545044 -0.05270000174641609 0.41850000619888306 0.9067000150680542
          -0.5148000121116638 0.24330000579357147 0.8220000267028809 0.7932999730110168 0.60589998960495 0.060100000351667404
          0.5465999841690063 0.7264999747276306 -0.4163999855518341 -0.5892999768257141 -0.4253999888896942 -0.6868000030517578
          -0.5213000178337097 -0.26339998841285706 -0.8116999864578247 0.08449999988079071 -0.9750000238418579 0.20559999346733093
          0.16179999709129333 -0.9657999873161316 0.20239999890327454 -0.3447999954223633 -0.9372000098228455 -0.05339999869465828
          0.9276999831199646 0.3659000098705292 0.0738999992609024 0.9445000290870667 0.31470000743865967 -0.09430000185966492
          0.9441999793052673 0.30070000886917114 0.13429999351501465 0.9178000092506409 0.17829999327659607 0.3547999858856201
          -0.19689999520778656 -0.9241999983787537 -0.3271999955177307 -0.1387999951839447 -0.6110000014305115 -0.7793999910354614
          -0.16140000522136688 -0.061799999326467514 -0.9850000143051147 -0.2443999946117401 -0.38260000944137573 -0.890999972820282
          0.4740999937057495 -0.41600000858306885 -0.7760000228881836 0.2460000067949295 -0.7775999903678894 -0.5785999894142151
          -0.009399999864399433 -0.9524999856948853 -0.3043000102043152 -0.36570000648498535 -0.9006999731063843 -0.23440000414848328
          -0.8988000154495239 0.30399999022483826 -0.3158999979496002 -0.8137999773025513 0.28369998931884766 -0.5072000026702881
          -0.3612000048160553 -0.6593999862670898 -0.6593000292778015 -0.033900000154972076 -0.6753000020980835 -0.7368000149726868
          -0.5419999957084656 -0.7706000208854675 -0.3353999853134155 -0.040800001472234726 -0.17020000517368317 0.9846000075340271
          -0.2678999900817871 -0.1354999989271164 0.9538999795913696 -0.33570000529289246 0.05249999836087227 0.940500020980835
          -0.4812999963760376 -0.01640000008046627 0.8763999938964844 -0.4196999967098236 -0.10670000314712524 0.9014000296592712
          -0.84170001745224 0.4957999885082245 0.21379999816417694 -0.7803999781608582 0.4876999855041504 0.3912000060081482
          -0.8325999975204468 0.5250999927520752 0.1761000007390976 -0.7727000117301941 0.6347000002861023 0.011300000362098217
          -0.6952999830245972 0.7164000272750854 -0.05829999968409538 -0.680400013923645 0.7181000113487244 -0.14579999446868896
          0.5192000269889832 -0.6395000219345093 -0.5669999718666077 0.34599998593330383 -0.28690001368522644 -0.8932999968528748
          -0.0729999989271164 -0.6715999841690063 -0.7372999787330627 0.0608999989926815 -0.6424999833106995 -0.7638000249862671
          0.05810000002384186 -0.7336999773979187 -0.6769000291824341 0.3203999996185303 -0.6797999739646912 -0.6596999764442444
          0.5482000112533569 0.8080999851226807 0.21570000052452087 0.5458999872207642 0.8378000259399414 -0.003599999938160181
          0.3953000009059906 0.9154999852180481 0.07540000230073929 0.35339999198913574 0.7767999768257141 0.5212000012397766
          0.45899999141693115 0.6973999738693237 0.5504000186920166 0.6053000092506409 0.21359999477863312 0.7667999863624573
          0.5564000010490417 -0.44119998812675476 0.7041000127792358 0.8334000110626221 -0.10369999706745148 0.542900025844574
          0.3244999945163727 0.39340001344680786 0.8601999878883362 -0.039500001817941666 0.34049999713897705 0.9394000172615051
          0.4138000011444092 -0.0778999999165535 0.9070000052452087 0.179299995303154 -0.11180000007152557 0.977400004863739
          0.6078000068664551 -0.03480000048875809 0.7932999730110168 0.6653000116348267 -0.0544000007212162 0.7445999979972839
          0.6538000106811523 -0.0625 0.7541000247001648 -0.5745999813079834 0.8023999929428101 -0.16120000183582306
          -0.3589000105857849 0.8445000052452087 -0.39750000834465027 -0.33390000462532043 0.8978000283241272 -0.2870999872684479
          -0.2655999958515167 0.8360000252723694 -0.48019999265670776 0.5616999864578247 0.5956000089645386 0.5741999745368958
          0.8967000246047974 0.3880000114440918 -0.21320000290870667 0.6518999934196472 0.5241000056266785 -0.5480999946594238
          0.7067000269889832 0.4717999994754791 -0.5271999835968018 0.7373999953269958 0.5325000286102295 -0.4154999852180481
          -0.7321000099182129 -0.20550000667572021 0.6495000123977661 -0.536899983882904 -0.822700023651123 0.186599999666214
          -0.7246000170707703 -0.5436000227928162 0.4237000048160553 -0.0471000000834465 -0.6096000075340271 -0.7912999987602234
          -0.45089998841285706 -0.22439999878406525 0.8639000058174133 -0.31130000948905945 -0.2590000033378601 0.9143000245094299
          -0.1860000044107437 -0.2924000024795532 0.9380000233650208 -0.36640000343322754 0.20469999313354492 0.9077000021934509
          -0.4499000012874603 0.12800000607967377 0.883899986743927 -0.23659999668598175 0.1477999985218048 0.9603000283241272
          -0.9726999998092651 0.02410000003874302 0.23070000112056732 -0.9587000012397766 -0.06360000371932983 0.27730000019073486
          -0.8668000102043152 -0.3163999915122986 0.3855000138282776 -0.8888999819755554 -0.18490000069141388 0.41920000314712524
          -0.9563000202178955 -0.1712999939918518 0.2371000051498413 -0.1589999943971634 -0.6532999873161316 -0.7401999831199646
          -0.4187999963760376 -0.21819999814033508 -0.8815000057220459 -0.47609999775886536 -0.11389999836683273 -0.871999979019165
          -0.4528000056743622 -0.1768999993801117 -0.8738999962806702 0.014600000344216824 -0.4803999960422516 -0.8769000172615051
          -0.07850000262260437 -0.8213000297546387 -0.5649999976158142 0.25 -0.7875000238418579 -0.5633000135421753
          -0.8694999814033508 0.227400004863739 0.43849998712539673 -0.8224999904632568 0.3163999915122986 0.4724999964237213
          -0.5652999877929688 0.3003000020980835 0.7682999968528748 -0.7759000062942505 0.2184000015258789 0.5917999744415283
          0.3702999949455261 0.8564000129699707 0.35989999771118164 0.1387999951839447 0.9887999892234802 0.0544000007212162
          -0.7833999991416931 -0.6039999723434448 -0.14669999480247498 -0.6137999892234802 -0.73089998960495 -0.29840001463890076
          -0.2757999897003174 -0.9259999990463257 -0.2578999996185303 -0.3393000066280365 -0.7929999828338623 -0.5059999823570251
          -0.23849999904632568 -0.8989999890327454 -0.36730000376701355 -0.9648000001907349 0.18170000612735748 -0.19020000100135803
          -0.9919999837875366 0.125900000333786 -0.012400000356137753 -0.9386000037193298 0.025699999183416367 0.3440999984741211
          -0.05820000171661377 -0.9139000177383423 -0.4016999900341034 0.2754000127315521 -0.9526000022888184 -0.1290999948978424
          0.579200029373169 -0.6995999813079834 -0.41839998960494995 -0.6448000073432922 -0.755299985408783 0.1168999969959259
          -0.6398000121116638 0.421999990940094 -0.642300009727478 -0.7587000131607056 0.37619999051094055 -0.5317999720573425
          -0.5123000144958496 0.5123000144958496 -0.689300000667572 -0.09570000320672989 0.8604999780654907 -0.5004000067710876
          0.14480000734329224 0.8022000193595886 -0.579200029373169 0.2903999984264374 0.7146999835968018 -0.6363000273704529
          0.603600025177002 0.3540000021457672 0.7143999934196472 0.7174999713897705 0.36649999022483826 0.5924000144004822
          0.5602999925613403 0.007899999618530273 0.8282999992370605 0.597599983215332 0.027799999341368675 0.8012999892234802
          0.5037000179290771 0.22300000488758087 0.8345999717712402 -0.6104999780654907 -0.42250001430511475 -0.6699000000953674
          -0.5224000215530396 -0.2825999855995178 -0.8044999837875366 0.7057999968528748 0.7050999999046326 0.06880000233650208
          0.5491999983787537 0.8008999824523926 0.2386000007390976 0.492900013923645 0.8690000176429749 0.04470000043511391
          0.0013000000035390258 -0.542900025844574 -0.8398000001907349 0.10729999840259552 -0.661300003528595 -0.7423999905586243
          0.02759999968111515 -0.4408999979496002 -0.8970999717712402 -0.17059999704360962 -0.968500018119812 -0.18129999935626984
          0.07100000232458115 -0.6187999844551086 -0.7822999954223633 -0.01889999955892563 -0.567799985408783 -0.8228999972343445
          -0.8008999824523926 -0.0885000005364418 0.592199981212616 -0.7146000266075134 -0.16050000488758087 0.6808000206947327
          -0.8586999773979187 -0.09570000320672989 0.5034000277519226 -0.7529000043869019 -0.10729999840259552 0.649399995803833
          0.7268000245094299 0.534600019454956 0.43130001425743103 0.6136000156402588 0.6603000164031982 0.43299999833106995
          -0.8461999893188477 0.2547999918460846 -0.46799999475479126 -0.906000018119812 0.23340000212192535 -0.3531999886035919
          -0.941100001335144 0.13910000026226044 -0.30820000171661377 -0.3257000148296356 -0.9453999996185303 -0.012500000186264515
          -0.30559998750686646 -0.7422999739646912 -0.5963000059127808 -0.24979999661445618 -0.9312000274658203 -0.2655999958515167
          -0.26570001244544983 -0.9639999866485596 0.014299999922513962 -0.047200001776218414 -0.989799976348877 0.13410000503063202
          -0.2630999982357025 -0.9057999849319458 0.3319999873638153 -0.5465999841690063 -0.26330000162124634 -0.7949000000953674
          -0.3716999888420105 -0.4564000070095062 -0.8083999752998352 -0.5454000234603882 -0.492000013589859 -0.678600013256073
          -0.42419999837875366 -0.7825000286102295 -0.45570001006126404 -0.5388000011444092 -0.5946000218391418 -0.5968000292778015
          -0.13429999351501465 -0.6834999918937683 -0.7174999713897705 -0.7157999873161316 0.5475000143051147 -0.4334000051021576
          -0.48080000281333923 0.7922999858856201 -0.37549999356269836 0.775600016117096 0.4259999990463257 0.4657000005245209
          0.8866999745368958 0.4417000114917755 0.13680000603199005 0.9025999903678894 0.24740000069141388 0.3522999882698059
          0.3481000065803528 0.013500000350177288 0.9373000264167786 0.21199999749660492 0.10599999874830246 0.9714999794960022
          0.08380000293254852 -0.04039999842643738 0.9957000017166138 0.40700000524520874 0.22220000624656677 0.8859999775886536
          -0.4932999908924103 -0.7785999774932861 0.3878999948501587 -0.31679999828338623 -0.9484999775886536 -0.002099999925121665
          -0.47589999437332153 -0.6890000104904175 0.5467000007629395 -0.5041000247001648 -0.3813999891281128 0.7749000191688538
          -0.29030001163482666 0.38119998574256897 0.8776999711990356 -0.5385000109672546 0.5095999836921692 0.6710000038146973
          -0.3702000081539154 0.6955000162124634 0.6158999800682068 0.06669999659061432 -0.21559999883174896 0.9742000102996826
          0.17339999973773956 -0.11309999972581863 0.9782999753952026 0.3091000020503998 0.8828999996185303 0.35339999198913574
          0.3034000098705292 0.9186000227928162 0.2533999979496002 0.7404000163078308 0.5472000241279602 0.3903999924659729
          0.4991999864578247 0.7321000099182129 0.4634999930858612 0.29899999499320984 -0.9169999957084656 0.26420000195503235
          -0.10429999977350235 -0.47369998693466187 0.8744999766349792 -0.019300000742077827 -0.7958999872207642 -0.6050999760627747
          -0.11800000071525574 -0.8215000033378601 -0.5579000115394592 0.6219000220298767 -0.7702000141143799 -0.14169999957084656
          0.4205000102519989 -0.8155999779701233 -0.39750000834465027 0.07639999687671661 -0.8252999782562256 -0.559499979019165
          0.5647000074386597 -0.6740999817848206 0.47609999775886536 0.05570000037550926 -0.8738999962806702 -0.4828999936580658
          0.4553999900817871 0.5516999959945679 0.6988000273704529 0.23190000653266907 0.5580999851226807 0.7967000007629395
          0.4968999922275543 0.5128999948501587 0.7001000046730042 0.7461000084877014 0.2745000123977661 0.6065999865531921
          0.7272999882698059 0.19429999589920044 0.6582000255584717 0.9769999980926514 0.21160000562667847 -0.02539999969303608
          0.916700005531311 0.3882000148296356 -0.09440000355243683 0.8618999719619751 0.49000000953674316 -0.1307000070810318
          -0.12950000166893005 -0.8008999824523926 -0.5845999717712402 -0.1656000018119812 -0.7705000042915344 -0.6154999732971191
          -0.7389000058174133 -0.13619999587535858 -0.6599000096321106 0.6071000099182129 -0.41339999437332153 -0.6786999702453613