<?xml version="1.0"?>
<VTKFile type="PolyData" version="0.1" byte_order="LittleEndian" header_type="UInt32" compressor="vtkZLibDataCompressor">
  <PolyData>
    <FieldData>
      <Array type="String" Name="MaterialNames" NumberOfTuples="1" format="ascii">
        109 97 116 101 114 105 97 108 95 48 0
      </Array>
      <Array type="String" Name="MaterialLibraries" NumberOfTuples="1" format="ascii">
        109 97 116 101 114 105 97 108 46 109 116 108 0
      </Array>
    </FieldData>
    <Piece NumberOfPoints="1463" NumberOfVerts="0" NumberOfLines="0" NumberOfStrips="0" NumberOfPolys="2927">
      <PointData Normals="Normals">
        <DataArray type="Float32" Name="Normals" NumberOfComponents="3" format="ascii" RangeMin="0.9999290500541874" RangeMax="1.0000721471322032">
          0.7777000069618225 0.042399998754262924 -0.6273000240325928 0.6284999847412109 0.02290000021457672 -0.777400016784668
          0.7577999830245972 -0.06289999932050705 -0.649399995803833 -0.5372999906539917 -0.32179999351501465 -0.7796000242233276
          -0.7674000263214111 -0.2849999964237213 -0.5742999911308289 -0.8269000053405762 -0.12680000066757202 -0.5479000210762024
          -0.15449999272823334 -0.3391999900341034 0.9279000163078308 -0.390500009059906 -0.5856999754905701 0.7103000283241272
          -0.48350000381469727 -0.41449999809265137 0.7710000276565552 -0.4812000095844269 0.8044999837875366 -0.3481000065803528
          -0.3741999864578247 0.6517000198364258 -0.6596999764442444 -0.2660999894142151 0.7470999956130981 -0.6092000007629395
          -0.28690001368522644 -0.07190000265836716 -0.955299973487854 -0.44369998574256897 0.002300000051036477 -0.8962000012397766
          -0.25529998540878296 0.09210000187158585 -0.9624999761581421 0.7918999791145325 0.5056999921798706 -0.3424000144004822
          0.8166000247001648 0.572700023651123 -0.0722000002861023 0.8619999885559082 0.4147999882698059 -0.2912999987602234
          0.3012000024318695 0.6237999796867371 -0.7211999893188477 0.6244000196456909 0.5751000046730042 -0.5285999774932861
          0.32690000534057617 0.8270999789237976 -0.45730000734329224 -0.8611999750137329 -0.4472000002861023 -0.241799995303154
          -0.8069000244140625 -0.590499997138977 0.013799999840557575 -0.8673999905586243 -0.4090000092983246 -0.2831999957561493
          0.6984999775886536 0.6789000034332275 0.22609999775886536 0.7170000076293945 0.6868000030517578 0.1193000003695488
          0.459199994802475 0.8240000009536743 0.3321000039577484 0.7253999710083008 0.5824000239372253 0.367000013589859
          0.7287999987602234 0.6765999794006348 -0.10530000180006027 0.6565999984741211 0.7361000180244446 0.16459999978542328
          -0.32739999890327454 0.3808000087738037 0.8647000193595886 -0.21799999475479126 -0.2669999897480011 0.9387000203132629
          -0.23659999668598175 -0.014600000344216824 0.9714999794960022 0.4844000041484833 -0.30889999866485596 -0.8184999823570251
          0.7376999855041504 -0.14249999821186066 -0.6599000096321106 0.3345000147819519 0.41290000081062317 0.847100019454956
          0.1412999927997589 0.43619999289512634 0.888700008392334 0.026599999517202377 0.5163000226020813 0.8560000061988831
          -0.31709998846054077 0.2648000121116638 0.9107000231742859 -0.5139999985694885 0.17800000309944153 0.8391000032424927
          -0.46050000190734863 0.38609999418258667 0.7993000149726868 0.46700000762939453 -0.2581999897956848 -0.8457000255584717
          0.8147000074386597 0.09759999811649323 -0.5716000199317932 0.7461000084877014 -0.1289999932050705 -0.6531999707221985
          0.8458999991416931 0.5242999792098999 0.09759999811649323 0.9323999881744385 0.10429999977350235 0.34619998931884766
          0.8450999855995178 0.1362999975681305 0.5169000029563904 -0.037300001829862595 0.2085999995470047 0.9772999882698059
          -0.013799999840557575 0.19480000436306 0.9807000160217285 -0.11500000208616257 -0.026900000870227814 0.9929999709129333
          -0.487199991941452 -0.5383999943733215 0.6876000165939331 -0.5709999799728394 -0.5108000040054321 0.6427000164985657
          -0.3368000090122223 -0.5202999711036682 0.7846999764442444 -0.9812999963760376 -0.14329999685287476 -0.12870000302791595
          -0.8697999715805054 -0.13570000231266022 -0.47429999709129333 -0.9009000062942505 -0.38830000162124634 -0.1940000057220459
          -0.9977999925613403 -0.01720000058412552 0.06379999965429306 -0.9505000114440918 -0.1454000025987625 -0.27469998598098755
          -0.9721999764442444 -0.23070000112056732 -0.04019999876618385 0.9297999739646912 0.2754000127315521 0.2442999929189682
          0.8378999829292297 0.22840000689029694 0.49570000171661377 0.9837999939918518 0.0778999999165535 0.1615000069141388
          -0.881600022315979 -0.33570000529289246 -0.3319000005722046 -0.66839998960495 -0.5777999758720398 -0.4684000015258789
          -0.5322999954223633 -0.14489999413490295 -0.8341000080108643 0.24310000240802765 -0.6452999711036682 0.7242000102996826
          0.1542000025510788 -0.6984000205993652 0.6988999843597412 0.2700999975204468 -0.09989999979734421 0.9575999975204468
          0.3513999879360199 0.9075999855995178 0.2298000007867813 0.41679999232292175 0.8428999781608582 0.3402999937534332
          0.38999998569488525 0.7336000204086304 0.5565000176429749 0.27619999647140503 0.5128999948501587 0.8127999901771545
          0.5396999716758728 0.5781000256538391 0.6119999885559082 0.5968999862670898 0.7307999730110168 0.3310999870300293
          0.3009999990463257 0.9517999887466431 0.058400001376867294 0.3312000036239624 0.9126999974250793 0.23919999599456787
          0.2671000063419342 0.9563000202178955 -0.11909999698400497 0.9211999773979187 0.26669999957084656 0.2833000123500824
          0.8981999754905701 0.4325999915599823 -0.07880000025033951 0.7633000016212463 0.5737000107765198 -0.296999990940094
          0.2838999927043915 0.008799999952316284 -0.9588000178337097 0.09099999815225601 -0.13330000638961792 -0.9868999719619751
          0.09629999846220016 0.09799999743700027 -0.9904999732971191 0.05959999933838844 -0.7549999952316284 0.652999997138977
          -0.07280000299215317 -0.766700029373169 0.6377999782562256 -0.014800000004470348 -0.7491000294685364 0.6621999740600586
          0.2696000039577484 0.349700003862381 -0.8971999883651733 0.5916000008583069 0.3702999949455261 -0.7161999940872192
          0.33649998903274536 0.5113999843597412 -0.7907000184059143 0.08699999749660492 -0.6371999979019165 0.7657999992370605
          0.14900000393390656 -0.5777000188827515 0.8025000095367432 -0.035100001841783524 -0.45170000195503235 0.8914999961853027
          -0.14079999923706055 -0.8375999927520752 0.5278000235557556 0.08420000225305557 -0.8145999908447266 0.5738999843597412
          -0.210999995470047 -0.921999990940094 0.3246000111103058 -0.6650000214576721 0.12250000238418579 0.7366999983787537
          -0.6248999834060669 -0.325300008058548 0.7096999883651733 -0.6685000061988831 -0.34779998660087585 0.6574000120162964
          0.4041999876499176 -0.5076000094413757 -0.7609000205993652 0.17499999701976776 -0.5098999738693237 -0.842199981212616
          0.42170000076293945 -0.37310001254081726 -0.8263999819755554 -0.4032000005245209 0.42739999294281006 0.8091999888420105
          -0.6450999975204468 -0.05999999865889549 0.7616999745368958 -0.8337000012397766 0.048700001090765 0.5501000285148621
          -0.7141000032424927 0.6779999732971191 -0.17409999668598175 -0.5073999762535095 0.7153000235557556 -0.4805000126361847
          -0.6086000204086304 0.6879000067710876 -0.3955000042915344 0.15880000591278076 -0.35190001130104065 -0.9225000143051147
          0.09300000220537186 -0.4830000102519989 -0.8707000017166138 0.08089999854564667 -0.6043999791145325 -0.7925000190734863
          -0.4878000020980835 -0.5821999907493591 -0.6504999995231628 -0.6327000260353088 -0.492900013923645 -0.5971999764442444
          -0.40709999203681946 -0.45559999346733093 -0.7915999889373779 -0.5952000021934509 -0.7074999809265137 0.38100001215934753
          -0.6241999864578247 -0.5758000016212463 0.5281000137329102 -0.5123999714851379 -0.8044999837875366 0.3003999888896942
          -0.8827999830245972 -0.2328999936580658 -0.40799999237060547 -0.7232999801635742 -0.21819999814033508 -0.6552000045776367
          -0.7465000152587891 -0.21879999339580536 -0.6284000277519226 -0.4278999865055084 -0.8805999755859375 -0.20350000262260437
          -0.7764000296592712 -0.6274999976158142 0.05860000103712082 -0.5403000116348267 -0.7526000142097473 -0.3763999938964844
          0.5105000138282776 0.6014000177383423 0.6146000027656555 0.010400000028312206 0.5817000269889832 0.8133999705314636
          0.3621000051498413 0.3982999920845032 0.8427000045776367 0.7402999997138977 -0.649399995803833 0.1737000048160553
          -0.2549000084400177 -0.9265000224113464 0.2768000066280365 0.028599999845027924 -0.8794000148773193 0.47530001401901245
          -0.6187999844551086 -0.4122999906539917 0.6686000227928162 -0.879800021648407 -0.2678000032901764 0.3928000032901764
          -0.8428000211715698 0.19050000607967377 0.5033000111579895 0.13330000638961792 0.07039999961853027 0.9886000156402588
          -0.11990000307559967 -0.3000999987125397 0.946399986743927 0.4120999872684479 0.13279999792575836 0.9014000296592712
          0.8935999870300293 -0.10660000145435333 0.4359999895095825 0.9035000205039978 -0.4205000102519989 -0.08309999853372574
          -0.8650000095367432 -0.24300000071525574 -0.4390000104904175 -0.7002999782562256 -0.21899999678134918 -0.6794000267982483
          -0.7551000118255615 -0.00570000009611249 -0.6554999947547913 -0.9514999985694885 -0.2612000107765198 -0.16279999911785126
          -0.9711999893188477 -0.10899999737739563 -0.21199999749660492 0.8242999911308289 0.48980000615119934 0.2840000092983246
          0.6015999913215637 0.796999990940094 -0.05380000174045563 0.5562999844551086 0.7781000137329102 0.29170000553131104
          -0.1062999963760376 -0.713699996471405 0.692300021648407 -0.03970000147819519 -0.5425000190734863 0.8391000032424927
          -0.362199991941452 -0.26350000500679016 0.89410001039505 0.17980000376701355 0.9157999753952026 0.35910001397132874
          0.0982000008225441 0.965499997138977 0.24140000343322754 0.3707999885082245 0.711899995803833 0.5964000225067139
          -0.821399986743927 -0.42250001430511475 0.3831000030040741 -0.7134000062942505 -0.5285999774932861 0.46000000834465027
          -0.8385000228881836 -0.09369999915361404 0.5368000268936157 0.012900000438094139 -0.3409000039100647 0.9399999976158142
          -0.3499000072479248 -0.5454999804496765 0.7616000175476074 -0.4442000091075897 -0.41429999470710754 0.7943999767303467
          0.7710000276565552 0.400299996137619 -0.4952000081539154 0.6898000240325928 0.4034000039100647 -0.6011000275611877
          0.859499990940094 -0.0071000000461936 -0.5109999775886536 0.6136000156402588 0.7860999703407288 -0.07419999688863754
          -0.15029999613761902 0.8817999958992004 -0.4471000134944916 -0.8269000053405762 0.5421000123023987 0.14959999918937683
          -0.6636999845504761 0.6848000288009644 0.3009999990463257 0.7663000226020813 -0.4180999994277954 -0.4878999888896942
          0.8201000094413757 -0.4941999912261963 -0.2883000075817108 0.9864000082015991 -0.15960000455379486 -0.03840000182390213
          0.4602000117301941 0.5180000066757202 -0.7210000157356262 0.37130001187324524 0.6784999966621399 -0.6338000297546387
          0.4300000071525574 0.3711000084877014 -0.8230000138282776 -0.8345999717712402 -0.5482000112533569 -0.053599998354911804
          0.4032000005245209 -0.9120000004768372 0.07540000230073929 -0.0940999984741211 -0.9584000110626221 0.26930001378059387
          0.1444000005722046 -0.8123000264167786 0.5649999976158142 -0.5216000080108643 0.7617999911308289 0.38420000672340393
          -0.5529999732971191 0.19200000166893005 0.8108000159263611 -0.6976000070571899 0.38749998807907104 0.6026999950408936
          -0.9879000186920166 0.05490000173449516 0.14489999413490295 -0.9327999949455261 0.35910001397132874 -0.029500000178813934
          -0.8930000066757202 0.44519999623298645 0.06650000065565109 0.5910999774932861 -0.7979999780654907 0.11699999868869781
          0.49540001153945923 -0.8144999742507935 -0.3018999993801117 0.7020999789237976 -0.6349999904632568 -0.3222000002861023
          0.31529998779296875 0.5449000000953674 -0.7768999934196472 0.4025000035762787 0.723800003528595 -0.5604000091552734
          -0.04179999977350235 0.49790000915527344 -0.8661999702453613 0.760699987411499 -0.6449999809265137 -0.07270000129938126
          -0.28859999775886536 -0.5702000260353088 -0.76910001039505 -0.27720001339912415 -0.5149999856948853 -0.8111000061035156
          -0.1396999955177307 -0.983299970626831 0.1168999969959259 0.8259999752044678 -0.3813999891281128 0.41499999165534973
          0.10000000149011612 -0.9283999800682068 -0.3578999936580658 -0.8995000123977661 -0.24410000443458557 0.36239999532699585
          -0.9632999897003174 -0.13830000162124634 0.23010000586509705 -0.9009000062942505 -0.3495999872684479 0.2572000026702881
          -0.8245999813079834 -0.5619000196456909 0.06610000133514404 -0.5529999732971191 -0.8019000291824341 0.22599999606609344
          -0.8167999982833862 -0.43709999322891235 0.3765000104904175 0.3402999937534332 0.9298999905586243 0.13940000534057617
          0.15000000596046448 0.9460999965667725 0.28690001368522644 0.4625999927520752 0.8805999755859375 -0.10260000079870224
          -0.9296000003814697 -0.3093999922275543 -0.2003999948501587 -0.8651999831199646 -0.4844000041484833 0.12970000505447388
          -0.9830999970436096 0.14569999277591705 0.11069999635219574 -0.9056000113487244 0.35569998621940613 -0.23100000619888306
          -0.8357999920845032 0.06509999930858612 -0.5450999736785889 -0.9997000098228455 0.02290000021457672 -0.013000000268220901
          0.33160001039505005 0.46889999508857727 0.8185999989509583 0.41370001435279846 0.6413000226020813 0.6462000012397766
          0.7527999877929688 0.45739999413490295 0.4733999967575073 -0.20409999787807465 0.2639999985694885 0.9427000284194946
          0.1678999960422516 -0.0625 0.9837999939918518 -0.26899999380111694 -0.5009999871253967 0.8226000070571899
          -0.461899995803833 -0.08479999750852585 0.8828999996185303 -0.1257999986410141 0.11670000106096268 0.9851999878883362
          -0.5016999840736389 -0.19750000536441803 0.842199981212616 0.678600013256073 0.1606999933719635 -0.71670001745224
          0.6179999709129333 0.45989999175071716 -0.6376000046730042 0.7085000276565552 0.7008000016212463 0.08259999752044678
          0.6536999940872192 0.5623000264167786 0.5063999891281128 0.8445000052452087 0.5138000249862671 0.15070000290870667
          0.12890000641345978 0.38280001282691956 -0.9147999882698059 0.1623000055551529 -0.6068000197410583 -0.7781000137329102
          0.5410000085830688 -0.47429999709129333 -0.6945000290870667 0.7251999974250793 -0.6690000295639038 -0.16290000081062317
          0.595300018787384 -0.8001999855041504 -0.07199999690055847 0.4796000123023987 -0.781000018119812 0.4002000093460083
          0.8312000036239624 -0.3917999863624573 -0.3944000005722046 0.19519999623298645 -0.9747999906539917 -0.10760000348091125
          0.30320000648498535 -0.8826000094413757 -0.35929998755455017 0.41269999742507935 -0.4424000084400177 -0.7961999773979187
          0.9111999869346619 0.36329999566078186 0.1941000074148178 0.8428000211715698 0.2581999897956848 0.4722999930381775
          0.055399999022483826 0.1867000013589859 0.98089998960495 0.4851999878883362 -0.06759999692440033 0.8718000054359436
          0.8812999725341797 0.3560999929904938 0.31049999594688416 0.838699996471405 0.5435000061988831 0.033799998462200165
          0.741100013256073 0.6514000296592712 -0.16290000081062317 0.6693999767303467 0.7384999990463257 0.08129999786615372
          0.6371999979019165 0.7170000076293945 -0.2825999855995178 0.7773000001907349 0.5527999997138977 -0.3003000020980835
          0.5809999704360962 0.7236999869346619 -0.3725000023841858 0.12409999966621399 0.9379000067710876 -0.3240000009536743
          0.05770000070333481 0.9476000070571899 -0.3142000138759613 0.066600002348423 0.9309999942779541 -0.35899999737739563
          -0.31209999322891235 -0.9498000144958496 0.023099999874830246 -0.48170000314712524 -0.754800021648407 -0.44519999623298645
          -0.579800009727478 -0.7979000210762024 -0.1647000014781952 -0.8388000130653381 -0.3840000033378601 0.38589999079704285
          -0.6147000193595886 -0.24940000474452972 0.7483000159263611 -0.7760999798774719 -0.4375 0.45419999957084656
          -0.6209999918937683 -0.11389999836683273 -0.7754999995231628 0.8449000120162964 0.47189998626708984 -0.25200000405311584
          0.8744999766349792 0.4715000092983246 0.11389999836683273 0.6707000136375427 0.5612000226974487 -0.48489999771118164
          0.39899998903274536 -0.30059999227523804 0.8662999868392944 0.010099999606609344 -0.6025999784469604 0.7979000210762024
          0.8641999959945679 0.49380001425743103 -0.09650000184774399 0.8834999799728394 0.43459999561309814 -0.17479999363422394
          0.8055999875068665 0.5713000297546387 -0.15710000693798065 -0.10909999907016754 -0.8108000159263611 0.5751000046730042
          -0.028200000524520874 -0.8813999891281128 0.4715999960899353 -0.16060000658035278 -0.6656000018119812 0.7289000153541565
          -0.4690999984741211 -0.7839999794960022 0.4065000116825104 -0.7698000073432922 -0.4603999853134155 0.44200000166893005
          -0.869700014591217 -0.09730000048875809 0.4839000105857849 -0.6363999843597412 0.40400001406669617 -0.6571000218391418
          -0.8295999765396118 -0.17010000348091125 -0.5317999720573425 -0.5565000176429749 -0.2711000144481659 0.7853000164031982
          -0.5134000182151794 -0.006200000178068876 0.8580999970436096 -0.9523000121116638 -0.10289999842643738 0.287200003862381
          -0.1632000058889389 -0.3824000060558319 -0.909500002861023 -0.3601999878883362 -0.45019999146461487 -0.8169999718666077
          -0.12520000338554382 -0.5489000082015991 -0.8264999985694885 0.15029999613761902 -0.8567000031471252 -0.4934000074863434
          -0.3871999979019165 -0.8970999717712402 -0.21279999613761902 0.0007999999797903001 -0.9174000024795532 -0.39809998869895935
          0.8299999833106995 0.4449999928474426 -0.3361999988555908 0.7874000072479248 0.36230000853538513 0.49880000948905945
          0.4900999963283539 0.8095999956130981 -0.3231000006198883 -0.33320000767707825 -0.5134999752044678 -0.7907999753952026
          0.54830002784729 0.829200029373169 0.10869999974966049 -0.014000000432133675 0.9998999834060669 -0.007000000216066837
          0.5393000245094299 0.8051000237464905 -0.24719999730587006 -0.0812000036239624 -0.0017999999690800905 -0.9966999888420105
          -0.3147999942302704 -0.3312999904155731 -0.8895000219345093 -0.021900000050663948 -0.4681999981403351 -0.883400022983551
          -0.18709999322891235 -0.5231999754905701 -0.8313999772071838 -0.7324000000953674 0.459199994802475 0.5026999711990356
          -0.8248000144958496 -0.028699999675154686 0.5645999908447266 -0.42660000920295715 0.5529000163078308 0.7157999873161316
          -0.2750999927520752 0.7197999954223633 0.6373000144958496 -0.5568000078201294 0.6086000204086304 0.5652999877929688
          -0.44670000672340393 -0.4844000041484833 0.7522000074386597 -0.6632999777793884 -0.7455999851226807 0.0640999972820282
          0.3785000145435333 -0.6639999747276306 0.6449000239372253 -0.016499999910593033 -0.9017999768257141 0.4318999946117401
          0.9663000106811523 0.24310000240802765 -0.08470000326633453 0.8421000242233276 0.26019999384880066 -0.4724999964237213
          0.9248999953269958 -0.3463999927043915 0.156700000166893 -0.5181999802589417 0.7961000204086304 0.3125999867916107
          0.09939999878406525 0.9692000150680542 0.22519999742507935 -0.43880000710487366 0.8349000215530396 0.33219999074935913
          -0.3474999964237213 -0.28299999237060547 0.8938999772071838 -0.31139999628067017 -0.009700000286102295 0.9502000212669373
          -0.03229999914765358 0.8611999750137329 0.5072000026702881 0.4645000100135803 0.7603999972343445 0.453900009393692
          -0.4032000005245209 0.6194999814033508 0.6735000014305115 -0.29490000009536743 0.9100000262260437 -0.2913999855518341
          -0.6139000058174133 0.7781000137329102 -0.13279999792575836 0.5658000111579895 -0.08399999886751175 -0.8202000260353088
          0.6621999740600586 -0.2858999967575073 -0.6926000118255615 0.4189000129699707 -0.23260000348091125 -0.8777999877929688
          0.8967000246047974 0.421999990940094 0.133200004696846 0.979200005531311 0.2021999955177307 0.019500000402331352
          0.9122999906539917 0.3659999966621399 0.1835000067949295 0.5001999735832214 -0.6812000274658203 -0.534600019454956
          0.7369999885559082 -0.2353000044822693 -0.6337000131607056 0.3343999981880188 -0.44929999113082886 -0.8284000158309937
          -0.15309999883174896 -0.4986000061035156 -0.8532000184059143 -0.39500001072883606 -0.8251000046730042 -0.40400001406669617
          0.5684999823570251 -0.45210000872612 -0.6873000264167786 -0.9995999932289124 -0.016300000250339508 -0.02410000003874302
          -0.9538999795913696 0.002099999925121665 -0.30000001192092896 -0.5978999733924866 0.1973000019788742 0.7768999934196472
          -0.5234000086784363 -0.10180000215768814 0.8460000157356262 0.30070000886917114 0.5059999823570251 0.8083999752998352
          0.18410000205039978 0.5888000130653381 0.7870000004768372 0.0551999993622303 -0.5264999866485596 0.8483999967575073
          0.04450000077486038 0.8084999918937683 -0.586899995803833 0.7307999730110168 0.6625000238418579 0.16439999639987946
          -0.6693999767303467 0.7113999724388123 -0.21410000324249268 0.7961999773979187 0.35120001435279846 -0.4927000105381012
          0.8159000277519226 0.4316999912261963 -0.3846000134944916 0.8544999957084656 0.37860000133514404 -0.3555999994277954
          0.7766000032424927 0.522599995136261 -0.35190001130104065 0.8241999745368958 0.3361000120639801 -0.45579999685287476
          0.7918000221252441 0.1378999948501587 -0.5950000286102295 0.867900013923645 0.11739999800920486 -0.482699990272522
          0.6862000226974487 0.2897999882698059 -0.6672000288963318 0.20839999616146088 -0.6462000012397766 -0.7342000007629395
          -0.09600000083446503 -0.7466999888420105 -0.6582000255584717 -0.5715000033378601 -0.7148000001907349 0.40299999713897705
          -0.6139000058174133 -0.77920001745224 -0.1265999972820282 -0.3142000138759613 -0.9136999845504761 -0.25760000944137573
          -0.8414000272750854 -0.5404999852180481 -0.0017999999690800905 -0.8783000111579895 -0.47540000081062317 -0.051100000739097595
          -0.7106000185012817 -0.3968000113964081 0.5809999704360962 -0.534500002861023 -0.4366999864578247 0.7235999703407288
          -0.5478000044822693 -0.26440000534057617 0.7936999797821045 -0.828499972820282 -0.22360000014305115 0.5134000182151794
          -0.8705000281333923 -0.48969998955726624 0.04989999905228615 -0.565500020980835 0.573199987411499 -0.5928999781608582
          -0.6513000130653381 0.13449999690055847 -0.7468000054359436 -0.26460000872612 0.6509000062942505 -0.7116000056266785
          0.003000000026077032 -0.7491999864578247 0.6624000072479248 0.19089999794960022 -0.605400025844574 0.7727000117301941
          -0.27399998903274536 -0.6395000219345093 0.7182999849319458 -0.6674000024795532 -0.7268000245094299 -0.16249999403953552
          -0.14910000562667847 -0.9854999780654907 -0.08139999955892563 0.42500001192092896 -0.384799987077713 -0.8192999958992004
          0.35249999165534973 -0.33079999685287476 -0.8754000067710876 -0.30000001192092896 -0.5148000121116638 0.8030999898910522
          -0.4424999952316284 -0.5386000275611877 0.7170000076293945 0.2240999937057495 -0.534500002861023 0.8148999810218811
          -0.6725999712944031 0.7175999879837036 -0.18070000410079956 -0.684499979019165 0.7132999897003174 -0.15060000121593475
          -0.8828999996185303 0.46889999508857727 0.023499999195337296 0.041600000113248825 0.7651000022888184 0.6424999833106995
          0.017899999395012856 0.8377000093460083 0.545799970626831 -0.26919999718666077 0.9003000259399414 0.34200000762939453
          0.9013000130653381 0.42260000109672546 0.09480000287294388 -0.11460000276565552 0.9549999833106995 0.2736999988555908
          0.5126000046730042 0.6772000193595886 -0.527899980545044 0.8784999847412109 0.4731000065803528 0.06710000336170197
          0.4945000112056732 0.859000027179718 -0.13269999623298645 0.43860000371932983 0.8799999952316284 0.18240000307559967
          0.16040000319480896 0.9621000289916992 0.22040000557899475 -0.4652999937534332 0.5763999819755554 0.6717000007629395
          -0.20489999651908875 0.9003000259399414 0.3840999901294708 -0.1388999968767166 0.9713000059127808 0.19290000200271606
          -0.29089999198913574 0.5738999843597412 -0.765500009059906 -0.38659998774528503 0.40310001373291016 -0.8295000195503235
          -0.3887999951839447 0.6057000160217285 -0.6941999793052673 0.3560999929904938 0.39590001106262207 -0.8464000225067139
          0.0917000025510788 0.3441999852657318 -0.9344000220298767 0.1915999948978424 0.5425999760627747 -0.8179000020027161
          -0.7649000287055969 -0.2766000032424927 -0.5817000269889832 -0.6169000267982483 -0.21610000729560852 -0.7567999958992004
          -0.7980999946594238 0.6011000275611877 -0.042100001126527786 -0.2946000099182129 -0.7523000240325928 -0.5892999768257141
          0.009600000455975533 -0.38359999656677246 -0.9233999848365784 -0.19439999759197235 -0.4316999912261963 -0.8808000087738037
          0.4302999973297119 0.6535999774932861 0.6226000189781189 -0.3995000123977661 0.5835000276565552 0.707099974155426
          0.18950000405311584 0.8641999959945679 0.46619999408721924 -0.5012999773025513 -0.18960000574588776 0.8442000150680542
          0.10379999876022339 -0.6891999840736389 0.7171000242233276 -0.24130000174045563 -0.7480000257492065 0.6183000206947327
          -0.28929999470710754 -0.5564000010490417 0.7789000272750854 -0.31850001215934753 -0.5680999755859375 0.758899986743927
          -0.5964999794960022 -0.46480000019073486 0.6542999744415283 -0.26499998569488525 -0.7005000114440918 0.6625999808311462
          -0.28369998931884766 -0.9369999766349792 -0.20360000431537628 -0.3140000104904175 -0.83160001039505 -0.45809999108314514
          -0.5670999884605408 -0.7609999775886536 0.3151000142097473 0.7924000024795532 -0.42800000309944153 -0.4345000088214874
          0.7860000133514404 -0.45489999651908875 -0.4185999929904938 0.8830000162124634 -0.16279999911785126 -0.4401000142097473
          0.3474999964237213 -0.45669999718666077 -0.8188999891281128 0.4307999908924103 -0.536300003528595 -0.7257999777793884
          0.5292999744415283 -0.5425000190734863 -0.6523000001907349 -0.1103999987244606 0.49219998717308044 0.8634999990463257
          -0.9488999843597412 -0.125 0.2897999882698059 -0.82669997215271 -0.5374000072479248 0.16680000722408295
          -0.8481000065803528 -0.26739999651908875 0.45750001072883606 -0.5837000012397766 -0.4814999997615814 0.6538000106811523
          -0.9351999759674072 0.35420000553131104 -0.003100000089034438 -0.6122999787330627 0.3174000084400177 0.7240999937057495
          0.8023999929428101 0.5314000248908997 0.271699994802475 0.2720000147819519 0.9373000264167786 0.21789999306201935
          -0.07720000296831131 -0.7785000205039978 0.6227999925613403 -0.4731000065803528 -0.796500027179718 0.3763999938964844
          -0.3059000074863434 -0.698199987411499 0.6471999883651733 -0.3391000032424927 -0.9257000088691711 0.16750000417232513
          0.40310001373291016 -0.06340000033378601 0.9129999876022339 0.0689999982714653 -0.4230000078678131 0.9035000205039978
          0.8062000274658203 0.460999995470047 0.3709000051021576 0.5200999975204468 0.41769999265670776 0.7450000047683716
          0.48539999127388 0.4458000063896179 0.7520999908447266 0.8083000183105469 -0.5871000289916992 0.04360000044107437
          0.29980000853538513 -0.38769999146461487 0.8716999888420105 0.7390000224113464 -0.20090000331401825 -0.6431000232696533
          0.7932000160217285 -0.3693000078201294 -0.48420000076293945 0.22540000081062317 -0.23440000414848328 -0.9455999732017517
          0.19589999318122864 -0.2386000007390976 -0.951200008392334 0.07699999958276749 0.4496999979019165 -0.8899000287055969
          0.19210000336170197 0.4634999930858612 -0.8651000261306763 -0.3158000111579895 -0.26589998602867126 -0.9107999801635742
          0.23319999873638153 0.5634999871253967 0.7925000190734863 0.15240000188350677 0.1973000019788742 0.9684000015258789
          0.5006999969482422 0.8636000156402588 0.05950000137090683 0.9363999962806702 0.25619998574256897 -0.23970000445842743
          0.8600999712944031 0.4401000142097473 0.257999986410141 0.590499997138977 0.8069000244140625 0.017799999564886093
          0.7250999808311462 0.5432999730110168 -0.42329999804496765 0.4401000142097473 0.4189999997615814 0.7942000031471252
          0.6111000180244446 -0.3901999890804291 0.6887000203132629 0.3797999918460846 -0.819599986076355 0.42899999022483826
          0.512499988079071 -0.34940001368522644 0.7843999862670898 -0.508899986743927 -0.7953000068664551 -0.3294999897480011
          -0.30970001220703125 -0.9041000008583069 -0.29440000653266907 0.5932999849319458 -0.5871999859809875 -0.5507000088691711
          0.6783999800682068 -0.05790000036358833 -0.7324000000953674 -0.9125000238418579 0.4090000092983246 -0.005900000222027302