<?xml version="1.0"?>
<VTKFile type="PolyData" version="0.1" byte_order="LittleEndian" header_type="UInt32" compressor="vtkZLibDataCompressor">
  <PolyData>
    <FieldData>
      <Array type="String" Name="MaterialNames" NumberOfTuples="1" format="ascii">
        109 97 116 101 114 105 97 108 95 48 0
      </Array>
      <Array type="String" Name="MaterialLibraries" NumberOfTuples="1" format="ascii">
        109 97 116 101 114 105 97 108 46 109 116 108 0
      </Array>
    </FieldData>
    <Piece NumberOfPoints="1387" NumberOfVerts="0" NumberOfLines="0" NumberOfStrips="0" NumberOfPolys="2685">
      <PointData Normals="Normals">
        <DataArray type="Float32" Name="Normals" NumberOfComponents="3" format="ascii" RangeMin="0.9998976302169097" RangeMax="1.0000624137523972">
          0.73580002784729 0.03889999911189079 -0.6759999990463257 0.7978000044822693 0.11760000139474869 -0.5914000272750854
          0.4528999924659729 0.08129999786615372 0.8877999782562256 0.382999986410141 0.1273999959230423 0.914900004863739
          0.6855000257492065 -0.04600000008940697 -0.7265999913215637 0.7121999859809875 -0.3513999879360199 0.607699990272522
          0.29840001463890076 -0.9502999782562256 -0.08799999952316284 -0.8532000184059143 0.48899999260902405 -0.18129999935626984
          -0.2538999915122986 -0.9420999884605408 -0.21870000660419464 -0.12470000237226486 -0.7613999843597412 -0.6362000107765198
          -0.5697000026702881 -0.8050000071525574 -0.1657000035047531 0.052000001072883606 -0.8317999839782715 -0.5526000261306763
          0.3337000012397766 -0.9189000129699707 0.210099995136261 0.28870001435279846 -0.8949999809265137 0.3398999869823456
          -0.7890999913215637 0.4747999906539917 0.3898000121116638 0.20829999446868896 -0.9474999904632568 0.24240000545978546
          -0.10750000178813934 -0.8938000202178955 0.43529999256134033 -0.5410000085830688 -0.7534000277519226 0.37369999289512634
          0.37310001254081726 -0.5508999824523926 0.7465000152587891 0.426800012588501 -0.017500000074505806 0.9041000008583069
          0.03629999980330467 0.2720000147819519 0.9616000056266785 -0.374099999666214 0.41429999470710754 0.8295999765396118
          -0.12330000102519989 -0.0658000037074089 -0.9901999831199646 0.15119999647140503 -0.36739999055862427 -0.9176999926567078
          -0.15610000491142273 0.1703999936580658 -0.9728999733924866 -0.022199999541044235 -0.4447999894618988 -0.8953999876976013
          0.4731000065803528 -0.09210000187158585 -0.8762000203132629 0.18240000307559967 -0.15880000591278076 -0.970300018787384
          0.8425999879837036 0.01850000023841858 -0.5382000207901001 0.7371000051498413 -0.5655999779701233 0.36980000138282776
          0.9656000137329102 -0.0786999985575676 -0.24770000576972961 -0.9689000248908997 0.1964000016450882 0.15060000121593475
          -0.9671000242233276 -0.11779999732971191 0.22519999742507935 0.9283000230789185 -0.3077000081539154 -0.20839999616146088
          -0.9818000197410583 -0.1662999987602234 -0.09109999984502792 0.8192999958992004 -0.5611000061035156 -0.11749999970197678
          -0.8855999708175659 -0.018400000408291817 -0.4641000032424927 -0.23960000276565552 0.10970000177621841 -0.9646000266075134
          -0.012900000438094139 0.45669999718666077 -0.8895000219345093 -0.15729999542236328 0.6251000165939331 -0.7645000219345093
          -0.46799999475479126 0.6991999745368958 -0.5403000116348267 -0.6762999892234802 -0.6509000062942505 0.3447999954223633
          -0.6495000123977661 0.7139999866485596 -0.2614000141620636 -0.7896999716758728 0.579800009727478 -0.2003999948501587
          -0.829200029373169 0.5557000041007996 -0.05999999865889549 -0.8935999870300293 0.44190001487731934 0.07890000194311142
          0.631600022315979 -0.76419997215271 0.1306000053882599 -0.08399999886751175 -0.7390999794006348 -0.6682999730110168
          0.3926999866962433 -0.8108999729156494 -0.43369999527931213 -0.4616999924182892 -0.47350001335144043 -0.75
          -0.17910000681877136 -0.3950999975204468 -0.9010000228881836 -0.36649999022483826 -0.6736999750137329 -0.641700029373169
          0.05000000074505806 -0.4851999878883362 -0.8730000257492065 -0.34299999475479126 -0.3280999958515167 -0.8801000118255615
          0.6355000138282776 -0.7010999917984009 0.323199987411499 0.14640000462532043 -0.9869999885559082 -0.06620000302791595
          0.5828999876976013 -0.8100000023841858 0.06360000371932983 -0.4244999885559082 -0.8439000248908997 -0.328000009059906
          -0.3898000121116638 -0.7882999777793884 -0.47600001096725464 -0.35580000281333923 -0.9298999905586243 -0.09290000051259995
          -0.262800008058548 -0.9646999835968018 -0.015399999916553497 -0.24650000035762787 -0.902899980545044 -0.3521000146865845
          -0.32600000500679016 -0.48429998755455017 -0.8119000196456909 0.7448999881744385 -0.4740000069141388 0.46959999203681946
          -0.8256000280380249 0.40529999136924744 0.39259999990463257 0.4408999979496002 -0.7954999804496765 0.4154999852180481
          -0.3361000120639801 -0.9413999915122986 0.027899999171495438 -0.45809999108314514 -0.8848999738693237 0.08349999785423279
          -0.3443000018596649 -0.8428000211715698 0.41359999775886536 0.3197999894618988 -0.9369000196456909 0.14149999618530273
          0.05550000071525574 -0.9722999930381775 -0.22689999639987946 -0.3181000053882599 -0.9067000150680542 -0.2770000100135803
          -0.3718000054359436 -0.3407999873161316 -0.8634999990463257 0.15690000355243683 -0.88919997215271 0.4296000003814697
          -0.28839999437332153 -0.8920999765396118 0.34779998660087585 -0.42480000853538513 -0.902999997138977 0.06360000371932983
          0.007300000172108412 -0.8815000057220459 -0.47209998965263367 -0.11900000274181366 -0.9672999978065491 0.22380000352859497
          0.2838999927043915 -0.1477999985218048 0.9473999738693237 -0.4957999885082245 0.29490000009536743 0.8167999982833862
          -0.13109999895095825 -0.8913000226020813 -0.43389999866485596 -0.1185000017285347 -0.7246000170707703 -0.6789000034332275
          -0.7954000234603882 0.6057000160217285 0.019700000062584877 0.26019999384880066 -0.9610999822616577 -0.09300000220537186
          0.5618000030517578 -0.7962999939918518 0.22429999709129333 0.04540000110864639 -0.916100025177002 -0.3982999920845032
          -0.5026999711990356 0.5710999965667725 0.6488999724388123 0.4903999865055084 -0.5751000046730042 0.6547999978065491
          -0.4681999981403351 -0.675599992275238 0.5695000290870667 -0.19550000131130219 -0.6523000001907349 0.7322999835014343
          -0.04969999939203262 -0.36399999260902405 0.9301000237464905 0.1160999983549118 -0.0843999981880188 0.9896000027656555
          0.22310000658035278 0.11559999734163284 0.9678999781608582 -0.14079999923706055 0.2451999932527542 0.9592000246047974
          0.1492999941110611 -0.5299999713897705 0.8346999883651733 -0.3425000011920929 -0.46459999680519104 0.8166000247001648
          -0.3425999879837036 -0.2793999910354614 0.8968999981880188 -0.27129998803138733 -0.4602000117301941 0.845300018787384
          0.16099999845027924 -0.22709999978542328 0.9603999853134155 -0.11969999969005585 -0.06289999932050705 0.9908000230789185
          0.020099999383091927 -0.2070000022649765 -0.9781000018119812 0.21130000054836273 -0.576200008392334 -0.7894999980926514
          -0.26660001277923584 0.10090000182390213 -0.9585000276565552 0.3727000057697296 -0.6676999926567078 -0.6444000005722046
          -0.44620001316070557 0.20010000467300415 -0.8722000122070312 -0.6420000195503235 0.3222000002861023 -0.6955999732017517
          0.10260000079870224 -0.6664000153541565 -0.7384999990463257 0.11509999632835388 -0.41769999265670776 -0.9013000130653381
          -0.16529999673366547 -0.3098999857902527 -0.9362000226974487 -0.7343000173568726 0.42890000343322754 -0.5260999798774719
          -0.7986000180244446 0.4717000126838684 -0.37369999289512634 0.8126000165939331 -0.11150000244379044 -0.5720000267028809
          -0.8209999799728394 0.5446000099182129 -0.17110000550746918 0.8011999726295471 -0.1046999990940094 -0.5892000198364258
          -0.7919999957084656 0.6100999712944031 0.02239999920129776 0.9200000166893005 -0.09440000355243683 -0.38040000200271606
          -0.848800003528595 0.5109999775886536 0.13539999723434448 0.18700000643730164 -0.6772000193595886 0.7116000056266785
          -0.883899986743927 0.42179998755455017 0.20190000534057617 0.029400000348687172 -0.9614999890327454 0.2732999920845032
          -0.8263000249862671 0.5627999901771545 -0.02019999921321869 0.3172000050544739 -0.36730000376701355 0.8743000030517578
          0.7865999937057495 -0.41449999809265137 0.4577000141143799 0.8715000152587891 -0.3610999882221222 -0.33160001039505005
          -0.7085999846458435 -0.4657999873161316 0.5299000144004822 -0.6141999959945679 -0.7016000151634216 0.3612000048160553
          -0.49309998750686646 0.8618000149726868 0.1185000017285347 0.9160000085830688 -0.39989998936653137 -0.031199999153614044
          -0.9842000007629395 0.09269999712705612 -0.1509999930858612 0.8540999889373779 0.18160000443458557 -0.48730000853538513
          0.8870000243186951 0.027300000190734863 0.460999995470047 -0.9891999959945679 -0.13429999351501465 -0.05869999900460243
          -0.7706000208854675 0.10920000076293945 -0.6277999877929688 0.8676999807357788 -0.4189999997615814 -0.26739999651908875
          0.7847999930381775 -0.3246000111103058 -0.527999997138977 0.8701000213623047 -0.21950000524520874 0.4413999915122986
          -0.3862999975681305 0.22540000081062317 -0.8944000005722046 -0.2937999963760376 0.3402000069618225 -0.8931999802589417
          0.08380000293254852 -0.9950000047683716 0.053599998354911804 0.7249000072479248 -0.6876999735832214 -0.03889999911189079
          -0.8687000274658203 -0.37470000982284546 0.3239000141620636 0.4837000072002411 -0.4724999964237213 0.7366999983787537
          0.45419999957084656 -0.7210000157356262 0.5232999920845032 -0.3785000145435333 0.4848000109195709 -0.7885000109672546
          -0.6481999754905701 0.5995000004768372 -0.46950000524520874 0.7182000279426575 -0.6958000063896179 0.0026000000070780516
          0.7175999879837036 -0.6924999952316284 -0.07429999858140945 0.44760000705718994 -0.8652999997138977 -0.22550000250339508
          -0.7224000096321106 -0.6884999871253967 0.06440000236034393 0.6680999994277954 -0.38429999351501465 -0.6371999979019165
          -0.7893999814987183 0.5651000142097473 -0.23960000276565552 -0.1940000057220459 -0.9660000205039978 -0.17090000212192535
          0.09279999881982803 -0.991599977016449 0.08950000256299973 0.5950000286102295 -0.3172999918460846 -0.7383999824523926
          -0.887499988079071 0.4510999917984009 -0.094200000166893 -0.48240000009536743 -0.8751000165939331 0.03739999979734421
          -0.762499988079071 -0.6326000094413757 -0.1354999989271164 0.5695000290870667 -0.7788000106811523 -0.26269999146461487
          0.4246000051498413 -0.70169997215271 -0.5720000267028809 0.04749999940395355 -0.9983000159263611 -0.03229999914765358
          -0.9301999807357788 0.3659000098705292 -0.028999999165534973 0.2833000123500824 -0.8675000071525574 0.40869998931884766
          0.553600013256073 -0.8245000243186951 0.1168999969959259 -0.2485000044107437 -0.8808000087738037 0.40310001373291016
          -0.9301999807357788 0.3246999979019165 0.17110000550746918 0.26759999990463257 -0.7700999975204468 -0.5789999961853027
          0.6419000029563904 -0.7663000226020813 -0.025100000202655792 -0.374099999666214 -0.5830000042915344 -0.7211999893188477
          -0.5437999963760376 -0.23770000040531158 -0.8047999739646912 -0.2500999867916107 -0.25780001282691956 -0.9333000183105469
          -0.4641000032424927 -0.2078000009059906 -0.8610000014305115 0.02250000089406967 -0.326200008392334 -0.9449999928474426
          -0.09669999778270721 -0.29589998722076416 -0.9502999782562256 -0.505299985408783 -0.305400013923645 -0.8070999979972839
          -0.12770000100135803 -0.6189000010490417 -0.7749000191688538 -0.5756999850273132 -0.46149998903274536 -0.6748999953269958
          0.28369998931884766 -0.9257000088691711 -0.2500999867916107 -0.4934999942779541 -0.8603000044822693 0.1274999976158142
          -0.17470000684261322 -0.9419000148773193 0.28679999709129333 0.3758000135421753 -0.86080002784729 0.34310001134872437
          0.7459999918937683 -0.6226999759674072 0.2361000031232834 -0.3741999864578247 -0.13189999759197235 -0.917900025844574
          -0.8797000050544739 0.015200000256299973 -0.47530001401901245 -0.30169999599456787 -0.17659999430179596 -0.9369000196456909
          -0.20810000598430634 -0.4025000035762787 -0.8913999795913696 -0.0940999984741211 -0.8903999924659729 -0.44530001282691956
          -0.5177000164985657 -0.8185999989509583 -0.2485000044107437 0.4632999897003174 -0.7017999887466431 0.541100025177002
          -0.7716000080108643 0.4293999969959259 0.4691999852657318 0.007699999958276749 -0.9797000288963318 0.20000000298023224
          -0.5321000218391418 -0.751800000667572 -0.38929998874664307 -0.6855000257492065 -0.6983000040054321 -0.2061000019311905
          0.6575999855995178 -0.5310999751091003 0.5342000126838684 -0.4242999851703644 -0.8608999848365784 -0.2806999981403351
          -0.7451000213623047 -0.51910001039505 0.4187000095844269 0.4521999955177307 -0.3928000032901764 0.8008000254631042
          -0.08529999852180481 0.186599999666214 0.9786999821662903 -0.47350001335144043 0.4122999906539917 0.7782999873161316
          0.4296000003814697 -0.5012999773025513 0.7509999871253967 0.08309999853372574 -0.720300018787384 0.6887000203132629
          -0.08240000158548355 -0.8812999725341797 0.4652000069618225 -0.6509000062942505 0.5076000094413757 0.5644000172615051
          -0.6942999958992004 -0.013000000268220901 0.7195000052452087 0.4763999879360199 -0.4097999930381775 0.777899980545044
          -0.3808000087738037 0.41589999198913574 0.8258000016212463 0.6700000166893005 -0.17229999601840973 0.722000002861023
          -0.24639999866485596 -0.13940000534057617 0.9591000080108643 -0.2029000073671341 0.05090000107884407 0.9778000116348267
          0.5152000188827515 -0.023399999365210533 0.8567000031471252 0.41830000281333923 0.14630000293254852 0.896399974822998
          0.15029999613761902 0.0940999984741211 0.9840999841690063 -0.02669999934732914 -0.11299999803304672 0.9932000041007996
          0.01360000018030405 -0.44290000200271606 -0.8964999914169312 -0.24220000207424164 0.06639999896287918 -0.9678999781608582
          -0.5058000087738037 0.21199999749660492 -0.8361999988555908 0.1695999950170517 -0.5521000027656555 -0.8162999749183655
          -0.2305999994277954 -0.6366000175476074 -0.7358999848365784 -0.0868000015616417 -0.4097000062465668 -0.9079999923706055
          -0.24979999661445618 -0.6251000165939331 -0.7394999861717224 -0.06120000034570694 -0.7182999849319458 -0.6930000185966492
          -0.7221999764442444 0.25380000472068787 -0.6434999704360962 0.2409999966621399 -0.6535999774932861 -0.7174000144004822
          -0.1151999980211258 -0.6100999712944031 -0.7839000225067139 -0.18809999525547028 -0.5537999868392944 -0.8111000061035156
          0.11020000278949738 -0.45980000495910645 -0.8810999989509583 0.42570000886917114 -0.3107999861240387 -0.8497999906539917
          -0.7804999947547913 0.5371000170707703 -0.3197000026702881 -0.7930999994277954 0.5968999862670898 -0.12129999697208405
          0.9035000205039978 -0.07519999891519547 -0.421999990940094 -0.8276000022888184 0.5612999796867371 -0.0031999999191612005
          -0.6601999998092651 -0.26600000262260437 0.7024000287055969 -0.2402999997138977 -0.5533000230789185 0.7975000143051147
          0.08720000088214874 -0.4537999927997589 0.8867999911308289 -0.6175000071525574 -0.7865999937057495 0.0052999998442828655
          -0.304500013589859 -0.944100022315979 0.1264999955892563 -0.7236999869346619 0.33230000734329224 0.6047999858856201
          0.46720001101493835 -0.3091999888420105 0.8282999992370605 0.7964000105857849 -0.43540000915527344 0.4196999967098236
          -0.892799973487854 0.41429999470710754 -0.1770000010728836 0.9004999995231628 -0.22589999437332153 -0.3714999854564667
          -0.5266000032424927 -0.8432000279426575 0.10809999704360962 -0.3797999918460846 -0.8554999828338623 0.35190001130104065
          -0.10509999841451645 0.365200012922287 0.925000011920929 -0.362199991941452 0.2590000033378601 0.8953999876976013
          -0.03929999843239784 0.9724000096321106 0.2296999990940094 -0.527899980545044 -0.5999000072479248 0.6011999845504761
          -0.48249998688697815 -0.6669999957084656 0.5677000284194946 -0.478300005197525 -0.003100000089034438 0.8780999779701233
          0.5121999979019165 0.6549999713897705 -0.5554999709129333 -0.06870000064373016 0.9258999824523926 -0.37139999866485596
          0.9401999711990356 -0.07699999958276749 -0.3319000005722046 -0.5810999870300293 0.41510000824928284 -0.699999988079071
          -0.814300000667572 -0.40700000524520874 0.4138000011444092 -0.6866000294685364 -0.4959000051021576 0.531499981880188
          -0.40220001339912415 -0.490200012922287 0.7731999754905701 -0.4440999925136566 -0.2678999900817871 0.8549000024795532
          0.6481999754905701 0.02370000071823597 -0.7609999775886536 -0.5210000276565552 0.7900000214576721 -0.3231000006198883
          0.8467000126838684 -0.5181000232696533 0.12150000035762787 -0.4779999852180481 0.489300012588501 -0.7293999791145325
          0.8378000259399414 -0.4643000066280365 -0.2872999906539917 0.7433000206947327 -0.30320000648498535 -0.5961999893188477
          -0.9441999793052673 0.20900000631809235 0.25440001487731934 0.6301000118255615 -0.4413999915122986 0.6388000249862671
          0.5044000148773193 -0.6758999824523926 0.5372999906539917 -0.6793000102043152 0.6439999938011169 -0.35179999470710754
          -0.9606000185012817 -0.250900000333786 0.11959999799728394 -0.8467000126838684 -0.3059999942779541 0.4352000057697296
          0.8801000118255615 -0.474700003862381 0.006899999920278788 -0.6733999848365784 -0.43470001220703125 0.5978999733924866
          0.5554999709129333 -0.8295999765396118 0.057100001722574234 0.7247999906539917 -0.6000000238418579 -0.33869999647140503
          -0.11490000039339066 -0.038600001484155655 -0.9926000237464905 -0.9520000219345093 -0.23479999601840973 -0.1964000016450882
          0.435699999332428 -0.5306000113487244 0.7271000146865845 0.02410000003874302 -0.6330999732017517 0.7735999822616577
          0.5910999774932861 -0.5724999904632568 -0.5680999755859375 0.5645999908447266 -0.8084999918937683 -0.16599999368190765
          -0.8938999772071838 -0.32179999351501465 -0.31209999322891235 -0.9725000262260437 0.05339999869465828 -0.22660000622272491
          0.6049000024795532 -0.029899999499320984 -0.7957000136375427 0.7092999815940857 -0.1687999963760376 -0.6844000220298767
          -0.8790000081062317 0.4350999891757965 -0.19509999454021454 0.840399980545044 -0.532800018787384 0.09929999709129333
          -0.7646999955177307 -0.364300012588501 -0.531499981880188 -0.6047000288963318 -0.772599995136261 -0.19329999387264252
          0.012900000438094139 0.06289999932050705 -0.9979000091552734 -0.5236999988555908 -0.72079998254776 0.45399999618530273
          -0.8852999806404114 -0.4650999903678894 0.0020000000949949026 0.4537999927997589 -0.08330000191926956 -0.8870999813079834
          0.5392000079154968 -0.8202000260353088 0.19099999964237213 -0.5950000286102295 -0.7864000201225281 -0.16590000689029694
          -0.8148999810218811 -0.5785999894142151 -0.0348999984562397 -0.9103999733924866 -0.1835000067949295 0.37059998512268066
          -0.14110000431537628 -0.5568000078201294 -0.8184999823570251 -0.09529999643564224 -0.8493000268936157 -0.5192000269889832
          0.08720000088214874 -0.08829999715089798 -0.9922000169754028 0.6891000270843506 -0.6195999979972839 0.37560001015663147
          0.3059999942779541 -0.8932999968528748 0.32919999957084656 -0.22849999368190765 -0.9599000215530396 0.16210000216960907
          -0.7961999773979187 -0.482699990272522 -0.36480000615119934 -0.8833000063896179 -0.45980000495910645 -0.09130000323057175
          -0.2720000147819519 -0.6383000016212463 -0.7200999855995178 -0.21240000426769257 -0.8008999824523926 -0.5598000288009644
          -0.45010000467300415 -0.7157999873161316 -0.5339000225067139 -0.3659000098705292 -0.9178000092506409 -0.15410000085830688
          -0.19979999959468842 -0.6328999996185303 -0.7480000257492065 -0.25049999356269836 -0.7170000076293945 -0.6503999829292297
          -0.42829999327659607 -0.839900016784668 -0.33320000767707825 -0.30300000309944153 -0.95169997215271 0.049400001764297485
          -0.11289999634027481 -0.9169999957084656 0.38260000944137573 -0.8610000014305115 0.47859999537467957 0.1720000058412552
          0.6796000003814697 -0.6047999858856201 0.41510000824928284 0.43380001187324524 -0.8963000178337097 0.09229999780654907
          -0.06639999896287918 -0.953499972820282 -0.2939999997615814 -0.7371000051498413 -0.3278000056743622 -0.5909000039100647
          -0.44359999895095825 -0.18930000066757202 -0.8759999871253967 -0.006000000052154064 -0.609499990940094 -0.7928000092506409
          -0.6676999926567078 -0.5978000164031982 -0.44359999895095825 -0.984000027179718 -0.08510000258684158 0.1565999984741211
          -0.023900000378489494 -0.6675999760627747 0.7440999746322632 0.29820001125335693 -0.791700005531311 -0.5332000255584717
          0.11620000004768372 -0.8812999725341797 -0.4580000042915344 -0.7279000282287598 -0.5353999733924866 -0.42829999327659607
          -0.8080999851226807 -0.20640000700950623 0.5516999959945679 -0.23250000178813934 -0.5550000071525574 0.7986000180244446
          0.1039000004529953 -0.2732999920845032 0.9563000202178955 0.3057999908924103 -0.6818000078201294 0.6644999980926514
          -0.4641999900341034 -0.2483000010251999 -0.8501999974250793 0.47600001096725464 -0.8654000163078308 0.15600000321865082
          0.3716000020503998 -0.8179000020027161 -0.439300000667572 0.7912999987602234 -0.43290001153945923 0.4316999912261963
          -0.31790000200271606 -0.03099999949336052 -0.9476000070571899 -0.6141999959945679 -0.7817000150680542 0.10819999873638153
          -0.31619998812675476 -0.9027000069618225 0.29159998893737793 -0.5248000025749207 0.5048999786376953 0.6852999925613403
          -0.08959999680519104 -0.8140000104904175 0.5738999843597412 0.7699999809265137 -0.149399995803833 0.620199978351593
          -0.48080000281333923 -0.6032000184059143 0.6363000273704529 -0.11940000206232071 -0.24320000410079956 0.9625999927520752
          -0.06419999897480011 0.19619999825954437 0.9783999919891357 0.6104000210762024 -0.19460000097751617 0.767799973487854
          -0.36010000109672546 0.2549999952316284 0.8974000215530396 -0.2822999954223633 -0.056699998676776886 0.9575999975204468
          0.46860000491142273 -0.11659999936819077 0.8756999969482422 0.49399998784065247 0.004699999932199717 0.8694000244140625
          -0.22990000247955322 0.33169999718666077 0.914900004863739 0.4377000033855438 0.2198999971151352 0.8718000054359436
          0.26910001039505005 0.2727999985218048 0.9236999750137329 -0.04899999871850014 0.17839999496936798 0.982699990272522
          0.03830000013113022 -0.2485000044107437 -0.9678999781608582 0.1923999935388565 -0.2451999932527542 -0.9502000212669373
          -0.10679999738931656 -0.1242000013589859 -0.9865000247955322 0.4077000021934509 -0.19470000267028809 -0.8920999765396118
          0.4973999857902527 -0.3806999921798706 -0.7795000076293945 -0.8274000287055969 0.34549999237060547 -0.44269999861717224
          0.635200023651123 -0.2922999858856201 -0.7148000001907349 -0.8090000152587891 0.5370000004768372 -0.23909999430179596
          0.6664999723434448 -0.13439999520778656 -0.733299970626831 -0.1395999938249588 0.8851000070571899 0.4440000057220459
          0.09629999846220016 0.42730000615119934 0.8989999890327454 0.8381999731063843 0.055399999022483826 0.5425000190734863
          0.8030999898910522 0.5462999939918518 0.23770000040531158 -0.041099999099969864 0.9904999732971191 -0.13109999895095825
          -0.7148000001907349 0.6744999885559082 -0.18479999899864197 0.6543999910354614 0.6668999791145325 -0.3562000095844269
          0.8551999926567078 0.04899999871850014 -0.515999972820282 0.1565999984741211 0.6955000162124634 -0.701200008392334
          0.8677999973297119 -0.0786999985575676 -0.49070000648498535 -0.35280001163482666 -0.24879999458789825 0.9020000100135803
          -0.3391999900341034 -0.3165999948978424 0.8858000040054321 0.16099999845027924 -0.014100000262260437 0.9868000149726868
          -0.30320000648498535 0.44699999690055847 0.8414999842643738 0.07069999724626541 0.45899999141693115 0.8855999708175659
          0.1876000016927719 0.030799999833106995 0.9817000031471252 -0.8070999979972839 0.5874000191688538 -0.059700001031160355
          -0.5724999904632568 0.16009999811649323 0.804099977016449 0.9003999829292297 -0.4133000075817108 -0.13600000739097595
          -0.734499990940094 -0.2289000004529953 0.638700008392334 -0.46779999136924744 -0.08340000361204147 0.8798999786376953
          -0.08510000258684158 0.3596000075340271 -0.9291999936103821 -0.2085999995470047 0.796999990940094 -0.5667999982833862
          -0.6323000192642212 0.6227999925613403 -0.46070000529289246 -0.21860000491142273 0.6194000244140625 -0.7540000081062317
          -0.18809999525547028 0.8047000169754028 -0.5630999803543091 0.9021000266075134 -0.25220000743865967 -0.3499999940395355
          -0.7443000078201294 -0.04340000078082085 0.6664000153541565 -0.8230000138282776 -0.08470000326633453 0.5616999864578247
          -0.902400016784668 0.1290999948978424 0.41100001335144043 0.8417999744415283 -0.18289999663829803 -0.5078999996185303
          0.3589000105857849 -0.14110000431537628 -0.9225999712944031 -0.7890999913215637 0.5361999869346619 -0.299699991941452
          -0.3659000098705292 0.848800003528595 -0.3815999925136566 0.6599000096321106 -0.7486000061035156 0.06310000270605087
          -0.5077999830245972 0.8101999759674072 -0.29249998927116394 -0.23149999976158142 0.9560999870300293 -0.1793999969959259
          0.9387000203132629 -0.3059000074863434 -0.15889999270439148 -0.8823999762535095 -0.019899999722838402 0.4699999988079071
          0.8198999762535095 -0.3327000141143799 0.4659000039100647 0.5863999724388123 -0.7522000074386597 0.3005000054836273
          -0.7063999772071838 -0.6322000026702881 0.3183000087738037 -0.8650000095367432 -0.2922999858856201 0.4077000021934509
          0.7505000233650208 -0.6323000192642212 -0.1923999935388565 -0.9835000038146973 0.15729999542236328 -0.08889999985694885
          -0.32659998536109924 0.8026000261306763 -0.499099999666214 -0.438400000333786 -0.8986999988555908 0.0071000000461936
          0.9879999756813049 -0.15150000154972076 0.03009999915957451 -0.6417999863624573 0.7447999715805054 -0.18250000476837158
          -0.7138000130653381 0.26820001006126404 -0.6470000147819519 -0.5733000040054321 0.4821999967098236 -0.6624000072479248
          0.7293999791145325 -0.15610000491142273 -0.666100025177002 0.4375 0.09669999778270721 -0.8938999772071838
          -0.22869999706745148 -0.2824999988079071 -0.9315999746322632 -0.6310999989509583 -0.7260000109672546 -0.2728999853134155
          -0.267300009727478 -0.8449000120162964 -0.4632999897003174 -0.04690000042319298 -0.6930000185966492 -0.7193999886512756
          -0.35519999265670776 -0.7376000285148621 -0.5742999911308289 -0.5771999955177307 -0.5996999740600586 -0.5541999936103821
          0.7067999839782715 0.4740000069141388 -0.5249999761581421 0.42890000343322754 0.7422999739646912 -0.5148000121116638
          0.9649999737739563 -0.17399999499320984 -0.19589999318122864 -0.6507999897003174 0.7591999769210815 0.008899999782443047
          0.9282000064849854 -0.2433999925851822 0.28130000829696655 -0.12330000102519989 -0.13179999589920044 -0.9836000204086304
          -0.8626999855041504 -0.4453999996185303 -0.23960000276565552 -0.536899983882904 -0.8273000121116638 0.16539999842643738
          -0.16920000314712524 -0.9821000099182129 0.08269999921321869 -0.7509999871253967 -0.44279998540878296 -0.48980000615119934
          -0.451200008392334 -0.46549999713897705 -0.7613999843597412 -0.3856000006198883 -0.2549999952316284 -0.8866999745368958
          -0.1964000016450882 0.3325999975204468 -0.9223999977111816 -0.06949999928474426 0.8535000085830688 -0.5163999795913696
          -0.3637999892234802 0.8468000292778015 -0.3880000114440918 0.7275000214576721 0.5544999837875366 -0.40400001406669617
          0.7975000143051147 -0.08760000020265579 -0.5968999862670898 -0.6510000228881836 -0.7494000196456909 -0.12049999833106995
          0.011500000022351742 -0.9761000275611877 -0.21699999272823334 0.1891999989748001 -0.848800003528595 -0.4936000108718872
          0.48890000581741333 0.7638999819755554 0.4212000072002411 -0.39489999413490295 0.8551999926567078 0.33559998869895935
          0.982200026512146 -0.12929999828338623 -0.13600000739097595 0.8130999803543091 -0.25380000472068787 0.5238000154495239
          -0.125900000333786 -0.6083999872207642 -0.7835000157356262 -0.6703000068664551 0.6456000208854675 -0.3659000098705292
          -0.5942999720573425 0.6589000225067139 0.460999995470047 0.4803999960422516 -0.6093999743461609 -0.6306999921798706
          -0.21250000596046448 0.4092999994754791 0.8873000144958496 -0.8069999814033508 0.4828999936580658 0.3400000035762787
          0.7627999782562256 -0.4214000105857849 0.4903999865055084 0.6636999845504761 -0.7113999724388123 -0.23080000281333923
          -0.6007000207901001 0.7709000110626221 0.21170000731945038 -0.7533000111579895 0.19920000433921814 -0.626800000667572