<?xml version="1.0"?>
<VTKFile type="PolyData" version="0.1" byte_order="LittleEndian" header_type="UInt32" compressor="vtkZLibDataCompressor">
  <PolyData>
    <FieldData>
      <Array type="String" Name="MaterialNames" NumberOfTuples="1" format="ascii">
        109 97 116 101 114 105 97 108 95 48 0
      </Array>
      <Array type="String" Name="MaterialLibraries" NumberOfTuples="1" format="ascii">
        109 97 116 101 114 105 97 108 46 109 116 108 0
      </Array>
    </FieldData>
    <Piece NumberOfPoints="435" NumberOfVerts="0" NumberOfLines="0" NumberOfStrips="0" NumberOfPolys="831">
      <PointData Normals="Normals">
        <DataArray type="Float32" Name="Normals" NumberOfComponents="3" format="ascii" RangeMin="0.9999305750683124" RangeMax="1.0000679185641441">
          0.8999999761581421 -0.13619999587535858 -0.4142000079154968 0.5644999742507935 -0.8116000294685364 -0.15080000460147858
          0.8952000141143799 -0.4406999945640564 -0.0658000037074089 0.9700999855995178 0.05380000174045563 -0.23669999837875366
          0.9986000061035156 -0.042500000447034836 -0.030799999833106995 0.618399977684021 -0.7858999967575073 0.006099999882280827
          0.963699996471405 -0.09520000219345093 0.24950000643730164 0.7224000096321106 -0.2102999985218048 0.6586999893188477
          0.7815999984741211 0.37720000743865967 0.4968000054359436 0.3962000012397766 -0.351500004529953 0.8482000231742859
          0.4287000000476837 0.06279999762773514 0.9013000130653381 0.16249999403953552 -0.328000009059906 0.9305999875068665
          0.3400000035762787 -0.3312999904155731 0.8801000118255615 0.18449999392032623 -0.4212999939918518 0.8878999948501587
          -0.36820000410079956 0.4163999855518341 0.8313000202178955 -0.5626999735832214 0.3898000121116638 0.7289999723434448
          -0.7576000094413757 0.4952999949455261 0.4250999987125397 -0.18889999389648438 0.0017999999690800905 0.9819999933242798
          0.07090000063180923 0.0706000030040741 0.9950000047683716 0.7218999862670898 -0.3353999853134155 -0.6053000092506409
          0.9312999844551086 -0.35749998688697815 -0.0697999969124794 0.9869999885559082 -0.04050000011920929 0.15539999306201935
          0.8458999991416931 -0.3864000141620636 0.3675999939441681 0.8744000196456909 -0.1200999990105629 0.4700999855995178
          0.9203000068664551 -0.21850000321865082 0.32440000772476196 0.8808000087738037 -0.4092000126838684 0.23810000717639923
          0.9248999953269958 -0.3668000102043152 0.10029999911785126 0.8953999876976013 -0.43619999289512634 0.08889999985694885
          0.8611000180244446 -0.44699999690055847 -0.24230000376701355 0.8069999814033508 -0.5144000053405762 -0.29010000824928284
          0.6477000117301941 -0.5674999952316284 -0.508400022983551 0.46480000019073486 -0.6212000250816345 -0.6309000253677368
          0.4724000096321106 -0.84170001745224 -0.26170000433921814 0.5378999710083008 -0.8391000032424927 0.08160000294446945
          0.23589999973773956 -0.9014000296592712 0.36320000886917114 0.2759000062942505 -0.803600013256073 0.527400016784668
          0.1850000023841858 -0.9387000203132629 0.29100000858306885 0.30149999260902405 -0.8725000023841858 0.3846000134944916
          0.4629000127315521 -0.5547000169754028 0.6913999915122986 0.21870000660419464 -0.9383000135421753 0.2678000032901764
          0.4104999899864197 -0.9118000268936157 -0.002899999963119626 -0.8999000191688538 0.17720000445842743 0.3984000086784363
          -0.8665000200271606 0.4034999907016754 0.2939000129699707 -0.8432999849319458 0.3255000114440918 0.427700012922287
          -0.9243000149726868 0.29249998927116394 0.2451000064611435 -0.8794000148773193 0.4449000060558319 0.16940000653266907
          -0.8299000263214111 0.3928000032901764 0.3961000144481659 0.43939998745918274 -0.7724999785423279 0.45840001106262207
          0.26930001378059387 -0.9412000179290771 0.20419999957084656 -0.7361999750137329 0.48249998688697815 0.47450000047683716
          0.18029999732971191 -0.840399980545044 0.5110999941825867 0.1298999935388565 -0.8288000226020813 0.5443000197410583
          0.2937000095844269 -0.644599974155426 0.7059000134468079 -0.6078000068664551 0.3646000027656555 0.7055000066757202
          0.07450000196695328 -0.5382000207901001 0.8395000100135803 0.041200000792741776 -0.26649999618530273 0.9628999829292297
          -0.28540000319480896 0.2533999979496002 0.9243000149726868 0.4611999988555908 -0.2117999941110611 -0.8616999983787537
          0.35040000081062317 -0.0860000029206276 -0.9326000213623047 0.6794000267982483 -0.4034999907016754 -0.6129000186920166
          0.4740000069141388 -0.06239999830722809 -0.8783000111579895 0.15929999947547913 0.020400000736117363 -0.9869999885559082
          0.07129999995231628 0.21950000524520874 -0.9729999899864197 -0.1703999936580658 0.39800000190734863 -0.9014000296592712
          0.6816999912261963 -0.7239999771118164 -0.1054999977350235 -0.5943999886512756 0.49900001287460327 -0.6305999755859375
          -0.6348000168800354 0.5248000025749207 -0.5670999884605408 -0.4844000041484833 0.44119998812675476 -0.7554000020027161
          0.7042999863624573 -0.6409000158309937 0.3052999973297119 -0.6707000136375427 0.5584999918937683 -0.48809999227523804
          0.8226000070571899 -0.5656999945640564 0.0568000003695488 0.6168000102043152 -0.6793000102043152 -0.3977000117301941
          -0.7560999989509583 0.6538000106811523 0.029600000008940697 -0.7554000020027161 0.6269000172615051 0.19059999287128448
          -0.7791000008583069 0.6057999730110168 0.16130000352859497 0.26660001277923584 -0.883899986743927 -0.38429999351501465
          0.0803999975323677 -0.8374999761581421 -0.5404000282287598 0.16930000483989716 -0.957099974155426 -0.23510000109672546
          0.1762000024318695 -0.7039999961853027 -0.6880000233650208 -0.7423999905586243 0.611299991607666 0.2741999924182892
          -0.8080999851226807 0.5468000173568726 0.219200000166893 0.0869000032544136 -0.9962000250816345 -0.005499999970197678
          0.2565000057220459 -0.9337000250816345 -0.24969999492168427 -0.8395000100135803 0.4462999999523163 0.30979999899864197
          0.12809999287128448 -0.989799976348877 0.06300000101327896 0.08250000327825546 -0.9958000183105469 0.0406000018119812
          -0.06620000302791595 -0.98089998960495 0.18279999494552612 0.05079999938607216 -0.9940000176429749 0.09650000184774399
          -0.8288000226020813 0.40560001134872437 0.3853999972343445 -0.809499979019165 0.3978999853134155 0.4318000078201294
          0.09300000220537186 -0.9204000234603882 0.3797000050544739 0.10050000250339508 -0.9379000067710876 0.3319999873638153
          0.2046000063419342 -0.9373000264167786 0.28209999203681946 0.16089999675750732 -0.9810000061988831 0.10819999873638153
          0.1931000053882599 -0.8949000239372253 0.40230000019073486 0.23260000348091125 -0.8212000131607056 0.5210000276565552
          -0.4975000023841858 0.5386999845504761 0.6798999905586243 -0.3779999911785126 0.5055000185966492 0.775600016117096
          0.10019999742507935 -0.48579999804496765 0.8683000206947327 0.02810000069439411 -0.14910000562667847 0.9883999824523926
          -0.07699999958276749 0.1664000004529953 0.9830999970436096 0.2863999903202057 0.11729999631643295 -0.9509000182151794
          0.538100004196167 -0.31029999256134033 -0.7836999893188477 0.025599999353289604 0.3465000092983246 -0.9376999735832214
          -0.1703999936580658 0.43869999051094055 -0.8823000192642212 -0.1152999997138977 0.39969998598098755 -0.9093000292778015
          -0.30140000581741333 0.48579999804496765 -0.8205000162124634 0.2621000111103058 -0.9279000163078308 -0.2651999890804291
          0.3898000121116638 -0.3937000036239624 -0.8324999809265137 0.3264000117778778 -0.7128999829292297 -0.6207000017166138
          -0.2354000061750412 0.3774999976158142 -0.8956000208854675 -0.44940000772476196 0.39879998564720154 -0.7993999719619751
          -0.02199999988079071 -0.996399998664856 -0.08229999989271164 0.4072999954223633 -0.7315000295639038 -0.5468000173568726
          0.399399995803833 -0.9136999845504761 -0.07479999959468842 -0.11909999698400497 -0.9553999900817871 0.2703999876976013
          0.4239000082015991 -0.8270000219345093 0.3693000078201294 -0.6682999730110168 0.6244000196456909 -0.4043999910354614
          -0.7544000148773193 0.6040999889373779 -0.25679999589920044 -0.6978999972343445 0.7003999948501587 -0.1492999941110611
          0.08540000021457672 -0.6797000169754028 -0.7285000085830688 0.27219998836517334 -0.8848000168800354 -0.3781999945640564
          -0.24490000307559967 -0.8877999782562256 -0.38960000872612 -0.2574999928474426 -0.925599992275238 0.2773999869823456
          -0.23749999701976776 -0.9283999800682068 -0.2858000099658966 -0.15690000355243683 -0.8942000269889832 0.41920000314712524
          0.1793999969959259 -0.95660001039505 0.2295999974012375 0.5205000042915344 -0.8535000085830688 -0.023399999365210533
          -0.7193999886512756 0.694100022315979 -0.02759999968111515 -0.04450000077486038 -0.9988999962806702 -0.011500000022351742
          0.3662000000476837 -0.9247999787330627 -0.10289999842643738 -0.487199991941452 -0.7756999731063843 -0.4011000096797943
          -0.40470001101493835 -0.8931999802589417 -0.19619999825954437 -0.25049999356269836 -0.8571000099182129 -0.45010000467300415
          -0.42800000309944153 -0.8140000104904175 -0.3926999866962433 0.1444000005722046 -0.8603000044822693 -0.48899999260902405
          -0.08110000193119049 -0.9516000151634216 -0.29649999737739563 -0.8065000176429749 0.5782999992370605 0.12280000001192093
          0.18539999425411224 -0.9702000021934509 0.15610000491142273 0.04960000142455101 -0.9962000250816345 0.07180000096559525
          -0.0478999987244606 -0.996999979019165 -0.06030000001192093 -0.8744999766349792 0.4641999900341034 0.14030000567436218
          0.21359999477863312 -0.9599000215530396 -0.18140000104904175 0.093299999833107 -0.9646999835968018 -0.24609999358654022
          -0.8650000095367432 0.415800005197525 0.2809999883174896 -0.007000000216066837 -0.9998999834060669 -0.013299999758601189
          0.11569999903440475 -0.9333000183105469 -0.3400999903678894 0.5889000296592712 -0.8019999861717224 0.09939999878406525
          -0.0812000036239624 -0.9857000112533569 -0.14749999344348907 -0.21699999272823334 -0.9023000001907349 -0.3725000023841858
          -0.8050000071525574 0.4235999882221222 0.4153999984264374 -0.8162000179290771 0.38830000162124634 0.4278999865055084
          0.3808000087738037 -0.7831000089645386 0.4916999936103821 0.23280000686645508 -0.6782000064849854 0.6970000267028809
          -0.05730000138282776 -0.8758000135421753 0.47920000553131104 0.05350000038743019 -0.8774999976158142 0.4765999913215637
          -0.0026000000070780516 -0.7912999987602234 0.6115000247955322 0.22930000722408295 -0.8853999972343445 0.4043999910354614
          -0.675599992275238 0.475600004196167 0.5633000135421753 0.25540000200271606 -0.8528000116348267 0.4555000066757202
          0.32269999384880066 -0.7372999787330627 0.5935999751091003 -0.19380000233650208 0.45089998841285706 0.8712999820709229
          -0.13500000536441803 0.39959999918937683 0.9067000150680542 -0.2459000051021576 0.4198000133037567 0.8737000226974487
          -0.4016999900341034 0.48179998993873596 0.7788000106811523 0.225600004196167 -0.42010000348091125 0.8790000081062317
          0.04580000042915344 -0.02280000038444996 0.9987000226974487 -0.05119999870657921 0.1656000018119812 0.9848999977111816
          0.37779998779296875 0.11630000174045563 -0.9185000061988831 0.08550000190734863 0.335099995136261 -0.9383000135421753
          0.3605000078678131 -0.03709999844431877 -0.9319999814033508 0.5608000159263611 -0.3061000108718872 -0.7692999839782715
          0.2199999988079071 0.17339999973773956 -0.9599999785423279 -0.03889999911189079 0.28060001134872437 -0.9589999914169312
          -0.23280000686645508 0.3156000077724457 -0.9199000000953674 -0.43470001220703125 0.4049000144004822 -0.8044000267982483
          -0.6592000126838684 0.5037000179290771 -0.5583000183105469 0.5938000082969666 -0.632099986076355 -0.49790000915527344
          -0.7037000060081482 0.66839998960495 -0.24070000648498535 -0.7932999730110168 0.5662999749183655 -0.22360000014305115
          0.4713999927043915 -0.5697000026702881 -0.6732000112533569 0.57669997215271 -0.5859000086784363 -0.5694000124931335
          -0.3427000045776367 -0.9394000172615051 -0.007799999788403511 -0.7026000022888184 0.7088000178337097 -0.06239999830722809
          -0.8582000136375427 0.508899986743927 -0.06750000268220901 0.4708000123500824 -0.8684999942779541 -0.15520000457763672
          0.6510999798774719 -0.5120999813079834 -0.5601999759674072 0.7529000043869019 -0.6510999798774719 -0.0957999974489212
          -0.792900025844574 0.5921000242233276 -0.14390000700950623 -0.8673999905586243 0.4927000105381012 -0.06989999860525131
          0.5570999979972839 -0.819599986076355 0.13349999487400055 0.13760000467300415 -0.9896000027656555 -0.040800001472234726
          0.6154999732971191 -0.761900007724762 -0.20200000703334808 -0.9550999999046326 0.29179999232292175 0.05079999938607216
          0.6638000011444092 -0.5996000170707703 -0.44699999690055847 0.7257000207901001 -0.6359000205993652 -0.26249998807907104
          -0.16609999537467957 -0.9754999876022339 -0.14399999380111694 -0.8901000022888184 0.3310999870300293 0.31310001015663147
          0.8842999935150146 -0.3790999948978424 0.27250000834465027 -0.7781999707221985 0.3903999924659729 0.4918000102043152
          -0.8252999782562256 0.3400999903678894 0.45080000162124634 0.7095000147819519 -0.34040001034736633 0.6169999837875366
          0.01510000042617321 -0.840399980545044 0.5418000221252441 -0.5853999853134155 0.38109999895095825 0.7156000137329102
          0.43540000915527344 -0.4948999881744385 0.7519999742507935 0.25440001487731934 -0.7117000222206116 0.6547999978065491
          0.4925999939441681 -0.31360000371932983 0.8118000030517578 -0.21089999377727509 0.2556999921798706 0.9434999823570251
          -0.349700003862381 0.2386000007390976 0.906000018119812 0.3718000054359436 -0.32839998602867126 0.8683000206947327
          0.1843000054359436 -0.04039999842643738 0.9819999933242798 0.05260000005364418 0.11640000343322754 0.9918000102043152
          -0.13940000534057617 0.18539999425411224 0.9726999998092651 0.41260001063346863 0.28130000829696655 -0.8664000034332275
          0.5472000241279602 0.061000000685453415 -0.8348000049591064 0.25459998846054077 0.2831999957561493 -0.9247000217437744
          0.05700000002980232 0.29170000553131104 -0.954800009727478 -0.15279999375343323 0.3450999855995178 -0.9259999990463257
          -0.39250001311302185 0.44830000400543213 -0.8030999898910522 -0.6225000023841858 0.565500020980835 -0.5410000085830688
          0.5774000287055969 0.0502999983727932 -0.8148999810218811 0.67330002784729 -0.26170000433921814 -0.6915000081062317
          -0.8263000249862671 0.5268999934196472 -0.1988999992609024 0.6960999965667725 -0.30820000171661377 -0.6484000086784363
          -0.8841000199317932 0.436599999666214 -0.16660000383853912 0.7965999841690063 -0.1826999932527542 -0.576200008392334
          0.9272000193595886 -0.2782999873161316 -0.2508000135421753 -0.9086999893188477 0.34279999136924744 -0.23800000548362732
          -0.9495999813079834 0.19670000672340393 -0.24420000612735748 0.9018999934196472 -0.4212000072002411 0.09570000320672989
          0.928600013256073 -0.3292999863624573 -0.17080000042915344 -0.9814000129699707 0.17270000278949738 0.08399999886751175
          0.9534000158309937 -0.21160000562667847 -0.2151000052690506 -0.8597999811172485 0.3061999976634979 0.40869998931884766
          0.9715999960899353 -0.06509999930858612 0.22759999334812164 -0.7727000117301941 0.3634999990463257 0.5203999876976013
          -0.7864000201225281 0.3646000027656555 0.4986000061035156 0.8228999972343445 -0.0010999999940395355 0.5680999755859375
          -0.7225000262260437 0.3098999857902527 0.6179999709129333 0.7250999808311462 -0.02419999986886978 0.6881999969482422
          0.6381999850273132 0.005900000222027302 0.7698000073432922 -0.2660999894142151 0.1421000063419342 0.9534000158309937
          -0.3725999891757965 0.15489999949932098 0.9150000214576721 -0.5396999716758728 0.20970000326633453 0.8152999877929688
          0.46369999647140503 -0.023600000888109207 0.885699987411499 0.25099998712539673 0.0892999991774559 0.9638000130653381
          0.07429999858140945 0.14190000295639038 0.9871000051498413 -0.11940000206232071 0.11490000039339066 0.9861999750137329
          0.5382000207901001 0.3517000079154968 -0.7659000158309937 0.4648999869823456 0.4323999881744385 -0.772599995136261
          0.38280001282691956 0.38679999113082886 -0.8389000296592712 0.1696999967098236 0.41200000047683716 -0.8952999711036682
          -0.13910000026226044 0.486299991607666 -0.8626999855041504 -0.39719998836517334 0.5584999918937683 -0.7282000184059143
          -0.37880000472068787 0.6036999821662903 -0.7013999819755554 0.44589999318122864 0.2110999971628189 -0.8697999715805054
          0.6413999795913696 -0.027400000020861626 -0.766700029373169 0.4472000002861023 0.35440000891685486 -0.8212000131607056
          -0.7085999846458435 0.5896999835968018 -0.3874000012874603 0.7035999894142151 -0.14319999516010284 -0.6959999799728394
          0.7705000042915344 -0.21649999916553497 -0.5995000004768372 -0.7998999953269958 0.5009999871253967 -0.3305000066757202
          0.944599986076355 -0.210999995470047 -0.2513999938964844 -0.8669000267982483 0.24619999527931213 -0.4334000051021576
          -0.9825999736785889 0.07699999958276749 -0.16899999976158142 0.96670001745224 -0.24809999763965607 -0.06210000067949295
          -0.9257000088691711 0.2728999853134155 0.2621000111103058 0.9980999827384949 0.02930000051856041 -0.05490000173449516
          0.9889000058174133 -0.1459999978542328 -0.028599999845027924 -0.828000009059906 0.28040000796318054 0.4855000078678131
          0.9397000074386597 0.1460999995470047 0.3093000054359436 0.9430999755859375 0.10409999638795853 0.3156999945640564
          -0.8027999997138977 0.3257000148296356 0.49939998984336853 -0.8047000169754028 0.26109999418258667 0.5332000255584717
          0.8240000009536743 0.1469999998807907 0.5472000241279602 -0.7634000182151794 0.22310000658035278 0.6061999797821045
          0.6690999865531921 0.15639999508857727 0.7265999913215637 0.5763000249862671 0.13539999723434448 0.805899977684021
          0.7681000232696533 0.1298000067472458 0.6270999908447266 0.5562000274658203 0.21879999339580536 0.8016999959945679
          -0.2736000120639801 0.16940000653266907 0.9467999935150146 -0.5332000255584717 0.15700000524520874 0.8313000202178955
          0.37860000133514404 0.18960000574588776 0.9059000015258789 0.18400000035762787 0.16590000689029694 0.9688000082969666
          -0.039400000125169754 0.11720000207424164 0.9922999739646912 0.26499998569488525 0.4429999887943268 -0.8565000295639038
          -0.02459999918937683 0.5185999870300293 -0.8547000288963318 0.3695000112056732 0.29589998722076416 -0.8809000253677368
          0.5640000104904175 0.12540000677108765 -0.8162000179290771 0.38609999418258667 0.3555000126361847 -0.8511999845504761
          0.38370001316070557 0.3702999949455261 -0.8460000157356262 0.16619999706745148 0.44449999928474426 -0.880299985408783
          -0.1485999971628189 0.5241000056266785 -0.8385999798774719 -0.42480000853538513 0.614799976348877 -0.6644999980926514
          -0.5936999917030334 0.6958000063896179 -0.4041999876499176 0.6754999756813049 -0.032099999487400055 -0.7366999983787537
          0.7940000295639038 -0.14419999718666077 -0.5906000137329102 -0.586899995803833 0.7002999782562256 -0.40639999508857727
          0.9287999868392944 -0.21469999849796295 -0.3019999861717224 -0.5400999784469604 0.5426999926567078 -0.6432999968528748
          -0.9731000065803528 0.20720000565052032 0.10019999742507935 -0.7470999956130981 0.14000000059604645 -0.6498000025749207
          -0.7721999883651733 0.5541999936103821 -0.310699999332428 0.9855999946594238 -0.1657000035047531 -0.03240000084042549
          -0.8701000213623047 0.41130000352859497 0.271699994802475 -0.5004000067710876 0.8655999898910522 0.018400000408291817
          0.987500011920929 -0.04390000179409981 0.1517000049352646 -0.8565000295639038 0.3140000104904175 0.4097000062465668
          0.8920000195503235 0.12729999423027039 0.4336000084877014 -0.8356000185012817 0.2703000009059906 0.4781999886035919
          -0.7638000249862671 0.319599986076355 0.5608000159263611 0.73580002784729 0.2637999951839447 0.6237000226974487
          -0.7444000244140625 0.2727000117301941 0.609499990940094 0.6656000018119812 0.2215999960899353 0.7127000093460083
          0.5101000070571899 0.320499986410141 0.7982000112533569 0.3538999855518341 0.2806999981403351 0.8921999931335449
          0.3573000133037567 0.36820000410079956 0.858299970626831 0.30799999833106995 0.24690000712871552 0.9187999963760376
          0.361299991607666 0.3873000144958496 0.8482000231742859 -0.10199999809265137 0.29109999537467957 0.951200008392334
          -0.0340999998152256 0.3961000144481659 0.9175999760627747 -0.37560001015663147 0.2402999997138977 0.8950999975204468
          0.16910000145435333 0.26010000705718994 0.9506999850273132 0.41190001368522644 0.30169999599456787 -0.8597999811172485
          0.3287999927997589 0.3790999948978424 -0.8650000095367432 0.39989998936653137 0.3578000068664551 -0.8438000082969666
          0.40799999237060547 0.4004000127315521 -0.8205000162124634 0.2434999942779541 0.513700008392334 -0.822700023651123
          -0.062300000339746475 0.6261000037193298 -0.7771999835968018 -0.396699994802475 0.7368000149726868 -0.5475000143051147
          -0.25940001010894775 0.8165000081062317 -0.5159000158309937 0.7818999886512756 0.11949999630451202 -0.6118999719619751
          0.626800000667572 0.19990000128746033 -0.7530999779701233 0.42570000886917114 0.33009999990463257 -0.8424999713897705
          0.3443000018596649 0.3806000053882599 -0.858299970626831 -0.3578999936580658 0.8561000227928162 -0.37279999256134033
          -0.45500001311302185 0.8130000233650208 -0.36340001225471497 0.9562000036239624 -0.043299999088048935 -0.2897000014781952
          -0.32580000162124634 0.8388000130653381 -0.43619999289512634 -0.413100004196167 0.8270000219345093 -0.38119998574256897
          -0.25189998745918274 0.7342000007629395 -0.6305000185966492 0.9969000220298767 0.06530000269412994 0.043699998408555984
          -0.631600022315979 0.7752000093460083 -0.012900000438094139 0.9569000005722046 0.13429999351501465 0.25760000944137573
          -0.7268999814987183 0.5626000165939331 0.3937999904155731 0.8374000191688538 0.26089999079704285 0.48019999265670776
          -0.5788000226020813 0.6668000221252441 0.46950000524520874 -0.3822000026702881 0.7366999983787537 0.5579000115394592
          0.75 0.32019999623298645 0.5788000226020813 0.5670999884605408 0.41620001196861267 0.7106999754905701
          -0.4787999987602234 0.589900016784668 0.6502000093460083 0.5776000022888184 0.396699994802475 0.7134000062942505
          0.4309000074863434 0.45989999175071716 0.7764000296592712 0.262800008058548 0.5519999861717224 0.7914000153541565
          0.1429000049829483 0.4828000068664551 0.8640000224113464 0.18950000405311584 0.6017000079154968 0.7759000062942505
          -0.011300000362098217 0.5593000054359436 0.8288999795913696 0.4018000066280365 0.4332999885082245 -0.8066999912261963
          0.28769999742507935 0.5830000042915344 -0.7598999738693237 -0.02800000086426735 0.8070999979972839 -0.5898000001907349
          0.4350000023841858 0.3653999865055084 -0.8230000138282776 0.6622999906539917 0.3357999920845032 -0.669700026512146
          0.3249000012874603 0.45660001039505005 -0.8281999826431274 0.3490999937057495 0.5342000126838684 -0.7699000239372253
          0.1907999962568283 0.7188000082969666 -0.6685000061988831 -0.34290000796318054 0.8442000150680542 -0.4120999872684479
          -0.23070000112056732 0.8766999840736389 -0.4221999943256378 0.7878000140190125 0.34950000047683716 -0.5072000026702881
          0.9473000168800354 0.16740000247955322 -0.2732999920845032 -0.3515999913215637 0.864300012588501 -0.3596999943256378
          0.9614999890327454 0.2685999870300293 0.05810000002384186 0.9363999962806702 0.33399999141693115 0.1071000024676323
          -0.4034000039100647 0.8690000176429749 -0.2865000069141388 -0.3165999948978424 0.9210000038146973 -0.22699999809265137
          0.9103000164031982 0.28870001435279846 0.29679998755455017 0.8705000281333923 0.387800008058548 0.30320000648498535
          -0.3163999915122986 0.9455999732017517 -0.07559999823570251 -0.41530001163482666 0.8593999743461609 0.29840001463890076
          0.7942000031471252 0.3878999948501587 0.46779999136924744 0.7972999811172485 0.3781999945640564 0.47040000557899475
          0.7588000297546387 0.41200000047683716 0.5044000148773193 -0.04039999842643738 0.9269999861717224 0.37290000915527344
          0.006500000134110451 0.8314999938011169 0.5554999709129333 -0.031099999323487282 0.8690999746322632 0.4936000108718872
          -0.11590000241994858 0.9538999795913696 0.2768000066280365 0.6234999895095825 0.4442000091075897 0.6434000134468079
          0.41440001130104065 0.5001000165939331 0.7603999972343445 0.3659000098705292 0.5371999740600586 0.7599999904632568
          0.18160000443458557 0.6870999932289124 0.703499972820282 0.20059999823570251 0.7092000246047974 0.6758000254631042
          0.19539999961853027 0.8122000098228455 0.5497000217437744 -0.0340999998152256 0.8917999863624573 0.45100000500679016
          0.5716000199317932 0.4487000107765198 -0.6869000196456909 0.3758000135421753 0.5694000124931335 -0.7311000227928162
          0.3208000063896179 0.6043999791145325 -0.7293000221252441 0.20640000700950623 0.7221999764442444 -0.660099983215332
          -0.059700001031160355 0.850600004196167 -0.5224999785423279 0.8962000012397766 0.42640000581741333 -0.12229999899864197
          0.8375999927520752 0.47620001435279846 -0.2678000032901764 0.6417999863624573 0.569599986076355 -0.5134999752044678
          0.4138000011444092 0.6699000000953674 -0.6164000034332275 0.3019999861717224 0.6991000175476074 -0.6481999754905701
          0.1315000057220459 0.8027999997138977 -0.5814999938011169 -0.18039999902248383 0.8389000296592712 -0.5134999752044678
          -0.25929999351501465 0.9323999881744385 -0.2517000138759613 0.8981999754905701 0.4377000033855438 0.041200000792741776
          -0.2621999979019165 0.9631999731063843 -0.05999999865889549 -0.19099999964237213 0.9779999852180481 0.08370000123977661
          0.8655999898910522 0.4636000096797943 0.1889999955892563 0.8284000158309937 0.42100000381469727 0.36959999799728394
          0.8036999702453613 0.47589999437332153 0.3571000099182129 -0.10429999977350235 0.9186999797821045 0.38100001215934753
          -0.15539999306201935 0.8805000185966492 0.4478999972343445 0.7142999768257141 0.4609000086784363 0.5267000198364258
          0.03150000050663948 0.7605999708175659 0.6485000252723694 0.21770000457763672 0.7437999844551086 0.6320000290870667
          0.16169999539852142 0.8302000164985657 0.5333999991416931 0.01640000008046627 0.8306000232696533 0.5566999912261963
          0.5924999713897705 0.5867000222206116 0.5519999861717224 0.4361000061035156 0.5995000004768372 0.6711999773979187
          0.770799994468689 0.6093999743461609 -0.1858000010251999 0.550599992275238 0.7712000012397766 -0.319599986076355
          0.3804999887943268 0.828000009059906 -0.4117000102996826 0.24130000174045563 0.9318000078201294 -0.2712000012397766
          -0.026599999517202377 0.9304999709129333 -0.3652999997138977 0.8080999851226807 0.5792999863624573 0.10689999908208847
          0.6383000016212463 0.7698000073432922 0.005100000184029341 0.43149998784065247 0.9014000296592712 -0.03620000183582306
          0.2624000012874603 0.9635000228881836 0.05220000073313713 -0.0017999999690800905 0.9993000030517578 -0.03669999912381172
          0.6862999796867371 0.6554999947547913 0.31529998779296875 0.460099995136261 0.8615999817848206 0.21439999341964722
          0.26570001244544983 0.9128999710083008 0.3098999857902527 0.03689999878406525 0.9602000117301941 0.2768999934196472
          0.3921000063419342 0.7768999934196472 0.4927000105381012
          <InformationKey name="L2_NORM_RANGE" location="vtkDataArray" length="2">
            <Value index="0">
              0.99993057507
            </Value>
            <Value index="1">
              1.0000679186
            </Value>
          </InformationKey>
        </DataArray>
      </PointData>
      <CellData>
        <DataArray type="Int32" Name="MaterialIds" format="ascii" RangeMin="0" RangeMax="0">
          0 0 0 0 0 0
          0 0 0 0 0 0
          0 0 0 0 0 0
          0 0 0 0 0 0
          0 0 0 0 0 0
          0 0 0 0 0 0
          0 0 0 0 0 0
          0 0 0 0 0 0
          0 0 0 0 0 0
          0 0 0 0 0 0
          0 0 0 0 0 0
          0 0 0 0 0 0
          0 0 0 0 0 0
          0 0 0 0 0 0
          0 0 0 0 0 0
          0 0 0 0 0 0
          0 0 0 0 0 0
          0 0 0 0 0 0
          0 0 0 0 0 0
          0 0 0 0 0 0
          0 0 0 0 0 0
          0 0 0 0 0 0
          0 0 0 0 0 0
          0 0 0 0 0 0
          0 0 0 0 0 0
          0 0 0 0 0 0
          0 0 0 0 0 0
          0 0 0 0 0 0
          0 0 0 0 0 0
          0 0 0 0 0 0
          0 0 0 0 0 0
          0 0 0 0 0 0
          0 0 0 0 0 0
          0 0 0 0 0 0
          0 0 0 0 0 0
          0 0 0 0 0 0
          0 0 0 0 0 0
          0 0 0 0 0 0
          0 0 0 0 0 0
          0 0 0 0 0 0
          0 0 0 0 0 0
          0 0 0 0 0 0
          0 0 0 0 0 0