<?xml version="1.0"?>
<VTKFile type="PolyData" version="0.1" byte_order="LittleEndian" header_type="UInt32" compressor="vtkZLibDataCompressor">
  <PolyData>
    <FieldData>
      <Array type="String" Name="MaterialNames" NumberOfTuples="1" format="ascii">
        109 97 116 101 114 105 97 108 95 48 0
      </Array>
      <Array type="String" Name="MaterialLibraries" NumberOfTuples="1" format="ascii">
        109 97 116 101 114 105 97 108 46 109 116 108 0
      </Array>
    </FieldData>
    <Piece NumberOfPoints="236" NumberOfVerts="0" NumberOfLines="0" NumberOfStrips="0" NumberOfPolys="429">
      <PointData Normals="Normals">
        <DataArray type="Float32" Name="Normals" NumberOfComponents="3" format="ascii" RangeMin="0.9999054239170792" RangeMax="1.000045679122057">
          -0.8377000093460083 -0.09290000051259995 -0.5382000207901001 -0.5997999906539917 -0.2935999929904938 -0.7443000078201294
          -0.4530999958515167 -0.4205000102519989 -0.7860000133514404 -0.8715999722480774 -0.03779999911785126 -0.4887000024318695
          -0.9825000166893005 -0.18060000240802765 0.04390000179409981 -0.032099999487400055 -0.7037000060081482 -0.7096999883651733
          -0.004900000058114529 -0.5020999908447266 -0.864799976348877 0.4009999930858612 -0.607200026512146 -0.6858999729156494
          -0.3384000062942505 -0.5325000286102295 -0.7757999897003174 -0.4196999967098236 -0.40720000863075256 -0.8112000226974487
          -0.7091000080108643 -0.15060000121593475 -0.6887999773025513 -0.8668000102043152 -0.13429999351501465 -0.48019999265670776
          0.9057999849319458 -0.28780001401901245 -0.3107999861240387 -0.9265000224113464 -0.210999995470047 -0.3116999864578247
          -0.948199987411499 -0.15219999849796295 0.27880001068115234 -0.4478999972343445 -0.14190000295639038 0.8827000260353088
          0.1356000006198883 -0.2903999984264374 -0.9472000002861023 0.8187999725341797 -0.28060001134872437 -0.5006999969482422
          -0.3732999861240387 -0.1906999945640564 -0.9078999757766724 -0.6883999705314636 -0.10419999808073044 -0.7178000211715698
          -0.8246999979019165 -0.054099999368190765 -0.5629000067710876 0.9966999888420105 0.05700000002980232 0.056699998676776886
          0.9474999904632568 0.19509999454021454 -0.2531000077724457 0.8011999726295471 -0.08959999680519104 -0.5916000008583069
          -0.9077000021934509 -0.0957999974489212 -0.40860000252723694 -0.8964999914169312 -0.33489999175071716 0.28999999165534973
          0.24050000309944153 0.005499999970197678 -0.9706000089645386 0.08410000056028366 -0.02449999935925007 0.9961000084877014
          -0.18770000338554382 -0.3440999984741211 0.9199000000953674 0.20509999990463257 -0.0210999995470047 -0.9785000085830688
          0.8664000034332275 -0.23489999771118164 -0.4406999945640564 -0.266400009393692 0.08330000191926956 -0.9602000117301941
          -0.5454999804496765 0.12839999794960022 -0.8281999826431274 -0.8633000254631042 0.13339999318122864 -0.48660001158714294
          -0.7049999833106995 0.15719999372959137 -0.6915000081062317 -0.7113000154495239 0.16899999976158142 -0.682200014591217
          0.9836000204086304 0.039500001817941666 -0.17569999396800995 -0.7459999918937683 -0.6218000054359436 0.23829999566078186
          -0.8657000064849854 -0.17890000343322754 -0.4675000011920929 -0.9564999938011169 -0.2468000054359436 -0.15539999306201935
          0.6162999868392944 0.490200012922287 -0.6162999868392944 0.32100000977516174 -0.3395000100135803 0.8841000199317932
          0.0035000001080334187 -0.7181000113487244 0.695900022983551 0.32269999384880066 -0.6195999979972839 0.715499997138977
          -0.3617999851703644 -0.7811999917030334 0.5087000131607056 -0.8230000138282776 -0.49000000953674316 0.287200003862381
          0.18629999458789825 -0.6987000107765198 0.6906999945640564 -0.17800000309944153 -0.6973999738693237 0.6941999793052673
          0.3393999934196472 0.32519999146461487 -0.8826000094413757 0.8291000127792358 0.04190000146627426 -0.5575000047683716
          -0.16210000216960907 0.29159998893737793 -0.9427000284194946 -0.48179998993873596 0.3416999876499176 -0.8069000244140625
          -0.5090000033378601 0.35010001063346863 -0.786300003528595 0.9976000189781189 0.05689999833703041 0.039500001817941666
          0.9476000070571899 -0.2578999996185303 0.18860000371932983 -0.5781000256538391 0.18289999663829803 -0.795199990272522
          -0.7652999758720398 0.06310000270605087 -0.6406000256538391 -0.934499979019165 0.019200000911951065 -0.35530000925064087
          0.7865999937057495 0.08590000122785568 0.6115000247955322 0.5446000099182129 -0.4984999895095825 0.6744999885559082
          0.38909998536109924 -0.5701000094413757 0.7235999703407288 -0.97079998254776 -0.210999995470047 -0.11410000175237656
          -0.7063999772071838 -0.5737000107765198 0.41440001130104065 -0.9815000295639038 -0.12210000306367874 0.14730000495910645
          -0.8657000064849854 -0.4507000148296356 -0.2176000028848648 0.3118000030517578 -0.6837000250816345 0.6596999764442444
          -0.023399999365210533 -0.7750999927520752 0.6312999725341797 0.2987000048160553 -0.7656000256538391 0.5698000192642212
          -0.4359999895095825 -0.695900022983551 0.5705999732017517 -0.8079000115394592 -0.29760000109672546 0.5085999965667725
          -0.6535999774932861 0.5295000076293945 -0.5407000184059143 0.03480000048875809 -0.7760000228881836 0.6297000050544739
          -0.4307999908924103 -0.5770999789237976 0.6937999725341797 -0.7821999788284302 0.43059998750686646 -0.45019999146461487
          0.8233000040054321 0.35920000076293945 -0.43950000405311584 0.739799976348877 0.23409999907016754 -0.6308000087738037
          0.05730000138282776 0.45080000162124634 -0.8906999826431274 -0.3328000009059906 0.484499990940094 -0.8090000152587891
          -0.3292999863624573 0.5199000239372253 -0.7882000207901001 0.5620999932289124 -0.26089999079704285 -0.7847999930381775
          0.6991999745368958 -0.6567999720573425 -0.28220000863075256 0.6614999771118164 -0.7296000123023987 -0.17339999973773956
          -0.3449999988079071 0.3785000145435333 -0.8589000105857849 -0.6134999990463257 0.23510000109672546 -0.7538999915122986
          -0.7752000093460083 0.2912999987602234 -0.5605000257492065 0.5770000219345093 -0.8025000095367432 0.15189999341964722
          0.03359999880194664 -0.8611999750137329 0.5072000026702881 0.6205000281333923 -0.7498000264167786 0.2296999990940094
          0.2353000044822693 -0.6633999943733215 0.7102000117301941 -0.9222000241279602 0.24210000038146973 -0.30160000920295715
          -0.9660000205039978 0.25619998574256897 0.03480000048875809 0.10830000042915344 -0.7894999980926514 0.6040999889373779
          -0.9160000085830688 0.08399999886751175 0.3921000063419342 -0.6173999905586243 0.5934000015258789 -0.5164999961853027
          -0.5863999724388123 0.5526000261306763 -0.592199981212616 0.1664000004529953 -0.8116999864578247 0.5598000288009644
          0.3305000066757202 -0.9168999791145325 0.22370000183582306 -0.23739999532699585 -0.6965000033378601 0.6771000027656555
          -0.7328000068664551 -0.3066999912261963 0.6072999835014343 -0.6660000085830688 0.39320001006126404 -0.6338000297546387
          -0.9300000071525574 -0.23479999601840973 -0.28290000557899475 -0.03420000150799751 -0.9190999865531921 0.39259999990463257
          -0.46149998903274536 -0.6966999769210815 0.5490999817848206 -0.9537000060081482 -0.24959999322891235 -0.16779999434947968
          -0.9061999917030334 -0.4207000136375427 0.04170000180602074 0.26330000162124634 0.4154999852180481 -0.8705999851226807
          -0.18379999697208405 0.5709999799728394 -0.8001000285148621 0.4661000072956085 0.14980000257492065 -0.8719000220298767
          0.8287000060081482 -0.19439999759197235 -0.5248000025749207 0.11069999635219574 0.4117000102996826 -0.9045000076293945
          -0.13809999823570251 0.5928999781608582 -0.7932999730110168 -0.17149999737739563 0.507099986076355 -0.8446000218391418
          -0.4404999911785126 0.45509999990463257 -0.7738000154495239 -0.7231000065803528 0.513700008392334 -0.4618000090122223
          0.9569000005722046 -0.28349998593330383 0.06300000101327896 0.9176999926567078 -0.3781999945640564 0.12129999697208405
          -0.847599983215332 0.51910001039505 -0.10999999940395355 0.42579999566078186 -0.6955999732017517 0.5787000060081482
          0.25440001487731934 -0.7971000075340271 0.5476999878883362 0.2784999907016754 -0.7777000069618225 0.5634999871253967
          0.33480000495910645 -0.7443000078201294 0.5777000188827515 -0.9096999764442444 0.3206000030040741 0.2639000117778778
          -0.6665999889373779 0.49470001459121704 -0.5576000213623047 -0.8567000031471252 0.1468999981880188 -0.4943000078201294
          0.11959999799728394 -0.9017999768257141 0.41519999504089355 0.29829999804496765 -0.8238999843597412 0.48170000314712524
          -0.902899980545044 0.10459999740123749 0.41690000891685486 -0.7178000211715698 0.3928999900817871 -0.5748000144958496
          -0.2547999918460846 0.20389999449253082 -0.9452000260353088 -0.6761999726295471 -0.7286999821662903 -0.10859999805688858
          -0.5665000081062317 -0.7293999791145325 0.3833000063896179 -0.8567000031471252 -0.14839999377727509 0.49399998784065247
          -0.8456000089645386 -0.45500001311302185 0.2791000008583069 -0.8726000189781189 -0.07020000368356705 0.48330000042915344
          -0.9301000237464905 -0.10339999943971634 0.3522000014781952 -0.8794999718666077 -0.10320000350475311 0.4645000100135803
          -0.9908000230789185 0.04100000113248825 0.12849999964237213 -0.9302999973297119 0.26269999146461487 0.25600001215934753
          0.9308000206947327 0.16750000417232513 -0.32499998807907104 0.7506999969482422 0.26190000772476196 -0.6065000295639038
          0.15029999613761902 0.5281999707221985 -0.8356999754905701 -0.07180000096559525 0.6003000140190125 -0.796500027179718
          -0.12839999794960022 0.5928999781608582 -0.7949000000953674 -0.3693000078201294 0.5968999862670898 -0.7121999859809875
          0.9035999774932861 -0.3050999939441681 -0.30059999227523804 -0.05770000070333481 0.6036999821662903 -0.7950999736785889
          -0.07800000160932541 0.5976999998092651 -0.7979000210762024 -0.5724999904632568 0.6588000059127808 -0.48809999227523804
          -0.7192000150680542 0.6696000099182129 -0.18529999256134033 0.42739999294281006 -0.7628999948501587 0.48500001430511475
          -0.8241000175476074 0.5519999861717224 0.1266999989748001 -0.7620000243186951 -0.6453999876976013 -0.051899999380111694
          0.1151999980211258 -0.8325999975204468 0.541700005531311 -0.8550999760627747 0.4108999967575073 0.31610000133514404
          -0.9635000228881836 0.26100000739097595 0.05849999934434891 0.07919999957084656 0.4519999921321869 -0.8884999752044678
          0.0997999981045723 -0.6134999990463257 0.78329998254776 0.8700000047683716 -0.3889000117778778 -0.30309998989105225
          -0.803600013256073 0.37860000133514404 0.459199994802475 -0.0027000000700354576 0.3138999938964844 -0.949400007724762
          -0.6675999760627747 0.555400013923645 0.4959000051021576 -0.9692999720573425 0.059700001031160355 0.23829999566078186
          -0.7901999950408936 0.5224999785423279 0.3199999928474426 -0.6287000179290771 0.7307000160217285 0.2660999894142151
          -0.5098999738693237 0.769599974155426 0.38440001010894775 0.23659999668598175 0.6105999946594238 -0.7556999921798706
          -0.23649999499320984 0.6589999794960022 -0.7139000296592712 0.15049999952316284 0.6542999744415283 -0.741100013256073
          0.6862999796867371 0.29260000586509705 -0.6657999753952026 0.018400000408291817 0.6449000239372253 -0.7639999985694885
          -0.06840000301599503 0.645799994468689 -0.7603999972343445 -0.22010000050067902 0.7127000093460083 -0.6660000085830688
          -0.5440000295639038 0.7371000051498413 -0.4007999897003174 -0.3001999855041504 0.822700023651123 -0.482699990272522
          0.8360000252723694 0.06780000030994415 -0.5444999933242798 -0.4602999985218048 0.8226000070571899 -0.33379998803138733
          -0.6743000149726868 0.7351999878883362 -0.06909999996423721 -0.7574999928474426 0.6014999747276306 0.25360000133514404
          -0.8737999796867371 -0.013199999928474426 0.4860000014305115 0.3188999891281128 -0.5254999995231628 0.7888000011444092
          0.7073000073432922 -0.6208000183105469 -0.33799999952316284 -0.5622000098228455 0.6866999864578247 0.4607999920845032
          -0.46549999713897705 -0.15279999375343323 -0.8716999888420105 -0.29420000314712524 0.8046000003814697 0.5157999992370605
          -0.14880000054836273 0.7721999883651733 0.6176999807357788 -0.3368000090122223 0.7592999935150146 0.5566999912261963
          0.00839999970048666 0.9532999992370605 0.301800012588501 0.03420000150799751 0.777400016784668 0.6280999779701233
          -0.272599995136261 0.9190000295639038 0.2847999930381775 -0.27570000290870667 0.9595000147819519 0.05730000138282776
          -0.2849999964237213 0.9199000000953674 0.26910001039505005 0.375 0.6281999945640564 -0.6816999912261963
          0.16189999878406525 0.7020000219345093 -0.6934999823570251 0.017899999395012856 0.7001000046730042 -0.7138000130653381
          -0.14659999310970306 0.7749999761581421 -0.6147000193595886 0.3589000105857849 0.6987000107765198 -0.6187999844551086
          0.6116999983787537 0.536899983882904 -0.5809999704360962 0.20010000467300415 0.6873000264167786 -0.698199987411499
          -0.062199998646974564 0.6787999868392944 -0.7317000031471252 -0.26080000400543213 0.782800018787384 -0.5649999976158142
          -0.4902999997138977 0.8133000135421753 -0.3133000135421753 -0.3734999895095825 0.8341000080108643 -0.4059000015258789
          -0.4472000002861023 0.8655999898910522 -0.22509999573230743 -0.5774000287055969 0.8033999800682068 0.1451999992132187
          -0.31869998574256897 -0.9402999877929688 0.11909999698400497 -0.3919999897480011 0.8396999835968018 0.375900000333786
          -0.38830000162124634 0.7853999733924866 0.4819999933242798 -0.11640000343322754 0.7321000099182129 0.6711000204086304
          0.02969999983906746 0.7035999894142151 0.7099999785423279 0.5060999989509583 0.7035999894142151 -0.49889999628067017
          0.43149998784065247 0.7128999829292297 -0.5526999831199646 0.37869998812675476 0.6607000231742859 -0.6481000185012817
          -0.04670000076293945 0.7171000242233276 -0.6953999996185303 -0.24490000307559967 0.8597999811172485 -0.4480000138282776
          -0.22339999675750732 0.9200000166893005 -0.32199999690055847 0.5950000286102295 0.7213000059127808 -0.35440000891685486
          0.6366000175476074 0.7128000259399414 -0.29429998993873596 0.5320000052452087 0.6769999861717224 -0.5084999799728394
          -0.3659000098705292 0.9304999709129333 -0.011699999682605267 -0.2773999869823456 0.9591000080108643 0.05609999969601631
          0.7196999788284302 0.6877999901771545 0.09489999711513519 0.6233000159263611 0.7260000109672546 0.2903999984264374
          0.6064000129699707 0.7483000159263611 0.2687000036239624 0.5422000288963318 0.8087000250816345 0.2281000018119812
          -0.23849999904632568 0.8784000277519226 0.414000004529953 0.41280001401901245 0.8198999762535095 0.39660000801086426
          0.20829999446868896 0.8022000193595886 0.559499979019165 0.08160000294446945 0.7965999841690063 -0.5989000201225281
          0.6901000142097473 0.7024000287055969 -0.17430000007152557 0.6087999939918518 0.7095999717712402 -0.3546999990940094
          0.10279999673366547 0.8794000148773193 -0.46480000019073486 0.022099999710917473 0.9991000294685364 -0.0348999984562397
          0.09759999811649323 0.9883999824523926 0.11640000343322754 0.5906999707221985 0.7608000040054321 0.2687000036239624
          0.19099999964237213 0.9674999713897705 0.1656000018119812 0.4909999966621399 0.8662999868392944 -0.09160000085830688
          <InformationKey name="L2_NORM_RANGE" location="vtkDataArray" length="2">
            <Value index="0">
              0.99990542392
            </Value>
            <Value index="1">
              1.0000456791
            </Value>
          </InformationKey>
        </DataArray>
      </PointData>
      <CellData>
        <DataArray type="Int32" Name="MaterialIds" format="ascii" RangeMin="0" RangeMax="0">
          0 0 0 0 0 0
          0 0 0 0 0 0
          0 0 0 0 0 0
          0 0 0 0 0 0
          0 0 0 0 0 0
          0 0 0 0 0 0
          0 0 0 0 0 0
          0 0 0 0 0 0
          0 0 0 0 0 0
          0 0 0 0 0 0
          0 0 0 0 0 0
          0 0 0 0 0 0
          0 0 0 0 0 0
          0 0 0 0 0 0
          0 0 0 0 0 0
          0 0 0 0 0 0
          0 0 0 0 0 0
          0 0 0 0 0 0
          0 0 0 0 0 0
          0 0 0 0 0 0
          0 0 0 0 0 0
          0 0 0 0 0 0
          0 0 0 0 0 0
          0 0 0 0 0 0
          0 0 0 0 0 0
          0 0 0 0 0 0
          0 0 0 0 0 0
          0 0 0 0 0 0
          0 0 0 0 0 0
          0 0 0 0 0 0
          0 0 0 0 0 0
          0 0 0 0 0 0
          0 0 0 0 0 0
          0 0 0 0 0 0
          0 0 0 0 0 0
          0 0 0 0 0 0
          0 0 0 0 0 0
          0 0 0 0 0 0
          0 0 0 0 0 0
          0 0 0 0 0 0
          0 0 0 0 0 0
          0 0 0 0 0 0
          0 0 0 0 0 0
          0 0 0 0 0 0
          0 0 0 0 0 0
          0 0 0 0 0 0
          0 0 0 0 0 0
          0 0 0 0 0 0
          0 0 0 0 0 0
          0 0 0 0 0 0
          0 0 0 0 0 0
          0 0 0 0 0 0
          0 0 0 0 0 0
          0 0 0 0 0 0
          0 0 0 0 0 0
          0 0 0 0 0 0
          0 0 0 0 0 0
          0 0 0 0 0 0
          0 0 0 0 0 0
          0 0 0 0 0 0
          0 0 0 0 0 0
          0 0 0 0 0 0
          0 0 0 0 0 0
          0 0 0 0 0 0
          0 0 0 0 0 0
          0 0 0 0 0 0
          0 0 0 0 0 0
          0 0 0 0 0 0
          0 0 0 0 0 0
          0 0 0 0 0 0
          0 0 0 0 0 0
          0 0 0
        </DataArray>
        <DataArray type="Float32" Name="GroupIds" format="ascii" RangeMin="0" RangeMax="0">
          0 0 0 0 0 0
          0 0 0 0 0 0
          0 0 0 0 0 0
          0 0 0 0 0 0
          0 0 0 0 0 0
          0 0 0 0 0 0
          0 0 0 0 0 0
          0 0 0 0 0 0
          0 0 0 0 0 0
          0 0 0 0 0 0
          0 0 0 0 0 0
          0 0 0 0 0 0
          0 0 0 0 0 0
          0 0 0 0 0 0
          0 0 0 0 0 0
          0 0 0 0 0 0
          0 0 0 0 0 0
          0 0 0 0 0 0
          0 0 0 0 0 0
          0 0 0 0 0 0
          0 0 0 0 0 0
          0 0 0 0 0 0
          0 0 0 0 0 0
          0 0 0 0 0 0
          0 0 0 0 0 0
          0 0 0 0 0 0
          0 0 0 0 0 0
          0 0 0 0 0 0
          0 0 0 0 0 0
          0 0 0 0 0 0
          0 0 0 0 0 0
          0 0 0 0 0 0
          0 0 0 0 0 0
          0 0 0 0 0 0
          0 0 0 0 0 0
          0 0 0 0 0 0
          0 0 0 0 0 0
          0 0 0 0 0 0
          0 0 0 0 0 0
          0 0 0 0 0 0
          0 0 0 0 0 0
          0 0 0 0 0 0
          0 0 0 0 0 0
          0 0 0 0 0 0
          0 0 0 0 0 0
          0 0 0 0 0 0
          0 0 0 0 0 0
          0 0 0 0 0 0
          0 0 0 0 0 0
          0 0 0 0 0 0
          0 0 0 0 0 0
          0 0 0 0 0 0
          0 0 0 0 0 0
          0 0 0 0 0 0
          0 0 0 0 0 0
          0 0 0 0 0 0
          0 0 0 0 0 0
          0 0 0 0 0 0
          0 0 0 0 0 0
          0 0 0 0 0 0
          0 0 0 0 0 0
          0 0 0 0 0 0
          0 0 0 0 0 0
          0 0 0 0 0 0
          0 0 0 0 0 0
          0 0 0 0 0 0
          0 0 0 0 0 0
          0 0 0 0 0 0
          0 0 0 0 0 0
          0 0 0 0 0 0
          0 0 0 0 0 0
          0 0 0
        </DataArray>
      </CellData>
      <Points>
        <DataArray type="Float32" Name="Points" NumberOfComponents="3" format="ascii" RangeMin="20.308128255974932" RangeMax="24.69001407224936">
          20.38892364501953 -0.1093669980764389 -6.850123882293701 20.645965576171875 0.010018999688327312 -7.137069225311279
          20.765575408935547 -0.20987500250339508 -7.088376998901367 20.41910743713379 0.15442800521850586 -6.902334213256836
          20.197975158691406 0.32003098726272583 -6.136170864105225 21.868148803710938 -0.3170509934425354 -7.406147003173828
          21.873416900634766 0.060784000903367996 -7.723052978515625 22.228008270263672 -0.1386130005121231 -7.514432907104492
          21.13905143737793 -0.1897599995136261 -7.271821022033691 21.169475555419922 0.18586699664592743 -7.556014060974121
          20.64106559753418 0.3854680061340332 -7.208164215087891 20.39375877380371 0.6263989806175232 -6.903379917144775
          22.511064529418945 -0.2083580046892166 -7.127037048339844 20.157716751098633 0.7315769791603088 -6.490614891052246
          20.083589553833008 0.8613970279693604 -6.164473056793213 20.472381591796875 0.8117660284042358 -5.839706897735596
          22.0048828125 0.5044379830360413 -7.916533946990967 22.441268920898438 0.2268490046262741 -7.538047790527344
          21.339130401611328 0.644415020942688 -7.814907073974609 20.721620559692383 0.8593670129776001 -7.427886009216309
          20.369731903076172 1.1465339660644531 -7.003935813903809 22.43431854248047 0.29673999547958374 -7.020312786102295
          22.4703426361084 0.10732299834489822 -6.90583610534668 22.40348243713379 0.39823099970817566 -6.874073028564453
          20.18606185913086 1.2103890180587769 -6.682409763336182 20.036239624023438 1.3188179731369019 -6.068589210510254
          22.573978424072266 0.31607601046562195 -6.856037139892578 21.200124740600586 0.9844779968261719 -5.80388879776001
          20.59920883178711 1.2318060398101807 -5.747035980224609 22.154930114746094 0.9691179990768433 -7.965460777282715
          22.559953689575195 0.7345870137214661 -7.674552917480469 21.505273818969727 1.1021920442581177 -7.889216899871826
          20.942407608032227 1.2551720142364502 -7.615274906158447 20.33473014831543 1.4888479709625244 -6.948015213012695
          20.51044464111328 1.4848710298538208 -7.154116153717041 20.393924713134766 1.709833025932312 -6.9635210037231445
          22.48502540588379 0.7919859886169434 -6.9549880027771 19.94676399230957 1.6389310359954834 -5.825870990753174
          19.932519912719727 1.8426610231399536 -6.43035888671875 19.622758865356445 2.137600898742676 -5.939287185668945
          22.723634719848633 0.763139009475708 -6.73935079574585 21.444133758544922 1.3859039545059204 -5.850389003753662
          20.67768669128418 1.4938549995422363 -5.560269832611084 21.082313537597656 1.6460779905319214 -5.5453948974609375
          20.165996551513672 1.696315050125122 -5.327630043029785 19.694002151489258 2.157102108001709 -5.34746789932251
          20.73941421508789 1.7164160013198853 -5.292026996612549 20.300525665283203 1.9860570430755615 -4.97718620300293
          22.31308937072754 1.4064459800720215 -7.841072082519531 22.583112716674805 1.1535899639129639 -7.747629165649414
          21.702537536621094 1.557919979095459 -7.838988780975342 21.017196655273438 1.7142369747161865 -7.50843620300293
          20.781532287597656 2.106884002685547 -7.1274189949035645 22.599103927612305 1.2378519773483276 -7.370337009429932
          22.55269432067871 1.3698389530181885 -6.8752899169921875 20.37281608581543 2.1951630115509033 -6.833162784576416
          19.89769172668457 2.350142002105713 -6.438780784606934 19.617313385009766 2.6285200119018555 -5.917434215545654
          22.267364501953125 1.298874020576477 -6.155195236206055 22.268203735351562 1.595695972442627 -6.173390865325928
          21.628753662109375 1.815595030784607 -5.72953987121582 19.520383834838867 2.6363890171051025 -5.510966777801514
          19.71588706970215 2.3817191123962402 -4.973199844360352 19.449974060058594 2.840657949447632 -5.103846073150635
          22.153444290161133 1.8548959493637085 -5.267695903778076 21.068607330322266 2.041719913482666 -5.163485050201416
          20.436153411865234 2.2428998947143555 -4.69877290725708 21.07526206970215 2.4661059379577637 -4.668199062347412
          19.99465560913086 2.527630090713501 -4.477902889251709 19.73436164855957 2.845911979675293 -4.491325855255127
          21.668256759643555 2.069106101989746 -4.307112216949463 20.526376724243164 2.534809112548828 -4.328293800354004
          20.086803436279297 2.75954008102417 -4.174489974975586 21.422481536865234 2.0487539768218994 -3.899533987045288
          22.5502986907959 1.4295099973678589 -7.66501522064209 22.463550567626953 1.7292070388793945 -7.502255916595459
          21.91946029663086 1.9642540216445923 -7.703619003295898 21.345252990722656 2.128106117248535 -7.4480299949646
          21.23065185546875 2.391083002090454 -7.2095842361450195 22.758729934692383 1.943524956703186 -7.238009929656982
          23.007801055908203 1.8363310098648071 -6.947854042053223 22.75867462158203 1.6595629453659058 -6.92916202545166
          20.756593704223633 2.63525390625 -6.891452789306641 20.094039916992188 2.75455904006958 -6.536870956420898
          19.774883270263672 3.0874791145324707 -6.056356906890869 22.900861740112305 1.77571702003479 -6.489562034606934
          22.369003295898438 1.7717169523239136 -5.952952861785889 22.945865631103516 1.8721059560775757 -6.2041521072387695
          21.92797088623047 1.8792630434036255 -5.832388877868652 19.578857421875 3.0603630542755127 -5.6885600090026855
          19.514362335205078 3.276487112045288 -5.076805114746094 21.999300003051758 2.236629009246826 -5.4450812339782715
          19.66753387451172 3.3718669414520264 -4.462741851806641 22.264318466186523 2.2741539478302 -4.722805976867676
          22.08676528930664 2.4407639503479004 -4.342185020446777 20.927690505981445 2.8059260845184326 -4.088871002197266
          21.65111541748047 3.0775070190429688 -4.045277118682861 20.42713737487793 2.9673690795898438 -3.8873300552368164
          20.12021255493164 3.251569986343384 -3.8810019493103027 21.69165802001953 2.5729401111602783 -3.865895986557007
          21.36404037475586 2.6957340240478516 -3.2191898822784424 20.931673049926758 3.001554012298584 -3.756067991256714
          20.439472198486328 3.2093520164489746 -3.5878679752349854 21.283702850341797 2.798135995864868 -2.8435490131378174
          21.130632400512695 3.053497076034546 -2.397294044494629 22.183361053466797 2.220832109451294 -7.508004188537598
          21.62161636352539 2.363692045211792 -7.372509002685547 22.901479721069336 2.340251922607422 -7.229691982269287
          23.12827491760254 2.1169629096984863 -7.072311878204346 22.249290466308594 2.4484119415283203 -7.380280017852783
          21.714141845703125 2.862467050552368 -7.022819995880127 20.914695739746094 3.174510955810547 -6.6700639724731445
          20.292186737060547 3.2155139446258545 -6.492197036743164 19.85610580444336 3.5129709243774414 -5.834671974182129
          23.156936645507812 2.105285882949829 -6.650766849517822 23.139324188232422 2.343522071838379 -6.26649284362793
          19.719831466674805 3.7289140224456787 -5.096778869628906 22.758548736572266 2.441999912261963 -5.594710826873779
          22.137313842773438 2.615912914276123 -5.145331859588623 22.47099494934082 2.6050779819488525 -5.294434070587158
          21.678396224975586 2.606739044189453 -4.914447784423828 19.804807662963867 3.7949299812316895 -4.3904218673706055
          22.370803833007812 2.5925168991088867 -4.487405776977539 22.560760498046875 2.6683189868927 -4.682441234588623
          22.277360916137695 2.786206007003784 -4.812535762786865 21.73270034790039 2.8938989639282227 -4.478250980377197
          20.089000701904297 3.816318988800049 -3.8094730377197266 22.322269439697266 2.7938289642333984 -4.294160842895508
          21.937124252319336 3.0339999198913574 -3.8190701007843018 21.29777717590332 3.045850992202759 -3.291990041732788
          20.72370147705078 3.3410990238189697 -3.0880870819091797 20.3692626953125 3.713805913925171 -3.2040059566497803
          20.968177795410156 3.371833086013794 -2.428544044494629 20.803300857543945 3.751569986343384 -2.444240093231201
          21.24219512939453 3.439379930496216 -1.747223973274231 21.103662490844727 3.6653590202331543 -1.9782840013504028
          21.31694984436035 3.5469601154327393 -1.294664978981018 21.362428665161133 3.7727150917053223 -0.9683039784431458
          23.152538299560547 2.3798630237579346 -6.950747966766357 23.07479476928711 2.7285590171813965 -6.897443771362305
          22.51118278503418 2.79573392868042 -7.205080032348633 21.281272888183594 3.3727378845214844 -6.564526081085205
          20.823301315307617 3.620249032974243 -6.361361980438232 20.49129295349121 3.654331922531128 -6.242331027984619
          23.403209686279297 2.7578070163726807 -6.289055824279785 21.833276748657227 3.399535894393921 -6.590303897857666
          21.203445434570312 3.650995969772339 -6.3520331382751465 20.187406539916992 3.977691888809204 -5.695234775543213
          20.079666137695312 4.158377170562744 -5.062753200531006 22.962665557861328 2.6586949825286865 -5.488801002502441
          20.00394058227539 4.191336154937744 -4.335540771484375 22.46432876586914 2.901283025741577 -4.522777080535889
          22.023813247680664 3.117918014526367 -4.248485088348389 20.24606704711914 4.229942798614502 -3.7363638877868652
          22.31961441040039 3.363219976425171 -3.798927068710327 22.078996658325195 3.270642042160034 -3.6766140460968018
          22.161537170410156 3.49584698677063 -3.8421859741210938 22.09598731994629 3.5625500679016113 -3.65380597114563
          20.547847747802734 4.212562084197998 -3.050589084625244 22.270519256591797 3.576728105545044 -3.5127429962158203
          20.985021591186523 4.179104804992676 -2.390939950942993 21.289085388183594 3.819020986557007 -1.5963189601898193
          21.289291381835938 4.003325939178467 -1.6691160202026367 21.50446319580078 4.089375019073486 -0.9154869914054871