<?xml version="1.0"?>
<VTKFile type="PolyData" version="0.1" byte_order="LittleEndian" header_type="UInt32" compressor="vtkZLibDataCompressor">
  <PolyData>
    <FieldData>
      <Array type="String" Name="MaterialNames" NumberOfTuples="1" format="ascii">
        109 97 116 101 114 105 97 108 95 48 0
      </Array>
      <Array type="String" Name="MaterialLibraries" NumberOfTuples="1" format="ascii">
        109 97 116 101 114 105 97 108 46 109 116 108 0
      </Array>
    </FieldData>
    <Piece NumberOfPoints="748" NumberOfVerts="0" NumberOfLines="0" NumberOfStrips="0" NumberOfPolys="1484">
      <PointData Normals="Normals">
        <DataArray type="Float32" Name="Normals" NumberOfComponents="3" format="ascii" RangeMin="0.9999275841478298" RangeMax="1.0000701981050852">
          -0.5333999991416931 0.3580999970436096 -0.7663000226020813 -0.359499990940094 0.18619999289512634 -0.9143999814987183
          -0.4643000066280365 0.2985999882221222 -0.8338000178337097 0.3066999912261963 0.5052000284194946 0.8065999746322632
          0.5127000212669373 0.5336999893188477 0.6725000143051147 0.47350001335144043 0.6723999977111816 0.5688999891281128
          0.39430001378059387 -0.4708000123500824 -0.7893000245094299 0.13230000436306 -0.6800000071525574 -0.7211999893188477
          -0.026000000536441803 -0.3878999948501587 -0.9212999939918518 0.9509000182151794 0.1615000069141388 -0.2639999985694885
          0.9032999873161316 -0.4120999872684479 -0.11879999935626984 0.888700008392334 -0.3059000074863434 -0.34150001406669617
          -0.6988999843597412 0.5386000275611877 0.4706000089645386 -0.6845999956130981 0.5303999781608582 0.5
          -0.7396000027656555 0.5275999903678894 0.4178999960422516 0.04769999906420708 -0.9686999917030334 0.2434999942779541
          -0.18150000274181366 -0.9459999799728394 0.2685000002384186 -0.14669999480247498 -0.9643999934196472 0.22020000219345093
          0.5152999758720398 -0.5101000070571899 0.6886000037193298 0.6797000169754028 -0.566100001335144 0.46639999747276306
          0.593500018119812 -0.6723999977111816 0.4424000084400177 0.8052999973297119 0.24459999799728394 -0.5400999784469604
          0.8515999913215637 0.2718000113964081 -0.448199987411499 0.9232000112533569 0.24570000171661377 -0.2955000102519989
          -0.7174999713897705 -0.6139000058174133 0.3292999863624573 -0.8888000249862671 -0.38190001249313354 0.2533999979496002
          -0.8547000288963318 -0.5146999955177307 0.0681999996304512 -0.7911999821662903 0.48339998722076416 0.37470000982284546
          0.718500018119812 -0.5550000071525574 0.41929998993873596 0.6690000295639038 -0.3709000051021576 0.64410001039505
          0.8097000122070312 -0.5060999989509583 0.2971000075340271 0.06729999929666519 0.3961000144481659 0.9157999753952026
          -0.2599000036716461 0.022099999710917473 0.965399980545044 -0.44179999828338623 0.49889999628067017 0.7455999851226807
          0.628000020980835 0.31839999556541443 -0.710099995136261 0.5378000140190125 0.4041000008583069 -0.7398999929428101
          0.6736999750137329 0.18559999763965607 -0.7153000235557556 0.2854999899864197 -0.18150000274181366 -0.9409999847412109
          0.522599995136261 -0.44429999589920044 -0.7276999950408936 0.4593999981880188 -0.6017000079154968 -0.6532999873161316
          -0.6851000189781189 0.48100000619888306 0.5471000075340271 -0.7728000283241272 0.2863999903202057 0.5663999915122986
          -0.6958000063896179 0.0778999999165535 0.7139999866485596 0.07349999994039536 -0.12020000070333481 0.9900000095367432
          0.12759999930858612 -0.2621999979019165 0.95660001039505 0.38370001316070557 0.7860000133514404 0.4846999943256378
          0.1956000030040741 0.8294000029563904 0.5232999920845032 0.16580000519752502 0.6639000177383423 0.729200005531311
          -0.0502999983727932 0.47530001401901245 -0.8784000277519226 0.164000004529953 0.5019999742507935 -0.8492000102996826
          -0.06419999897480011 0.3977999985218048 -0.9151999950408936 0.3163999915122986 0.10119999945163727 -0.9431999921798706
          -0.06889999657869339 -0.1136000007390976 -0.991100013256073 0.03830000013113022 0.10540000349283218 -0.9937000274658203
          -0.48570001125335693 -0.36579999327659607 0.7939000129699707 -0.5318999886512756 0.04809999838471413 0.8453999757766724
          -0.6026999950408936 -0.09099999815225601 0.7926999926567078 0.009399999864399433 0.9735999703407288 0.22789999842643738
          0.18310000002384186 0.979200005531311 0.08749999850988388 0.3806999921798706 0.8974000215530396 0.22300000488758087
          -0.2485000044107437 -0.5782999992370605 0.7771000266075134 -0.39480000734329224 0.06319999694824219 0.9165999889373779
          -0.5827000141143799 0.1615000069141388 0.796500027179718 0.45399999618530273 -0.7922000288963318 0.4077000021934509
          0.6330000162124634 -0.7153000235557556 0.2962000072002411 0.45820000767707825 0.6570000052452087 0.5986999869346619
          0.47929999232292175 0.5698000192642212 0.6675999760627747 0.37770000100135803 0.5139999985694885 0.7702000141143799
          0.6353999972343445 -0.725600004196167 -0.2639999985694885 0.1899999976158142 -0.9761999845504761 0.10429999977350235
          0.47209998965263367 -0.8623999953269958 0.1826000064611435 -0.30489999055862427 -0.9509000182151794 0.05290000140666962
          -0.37070000171661377 -0.7911999821662903 0.4864000082015991 -0.4221000075340271 -0.8098000288009644 0.4074999988079071
          -0.9728000164031982 -0.11320000141859055 0.20200000703334808 -0.9319999814033508 -0.2093999981880188 0.29589998722076416
          -0.991599977016449 -0.027000000700354576 0.12630000710487366 -0.35530000925064087 0.07270000129938126 -0.9319000244140625
          -0.4941999912261963 -0.1606999933719635 -0.8543999791145325 -0.5670999884605408 0.20170000195503235 -0.7986000180244446
          0.6065999865531921 0.7949000000953674 0.01549999974668026 0.6309000253677368 0.7682999968528748 0.10819999873638153
          0.4523000121116638 0.8884000182151794 0.07900000363588333 -0.09009999781847 -0.8314999938011169 0.5482000112533569
          -0.3163999915122986 -0.8758999705314636 0.364300012588501 -0.07000000029802322 -0.9666000008583069 0.24650000035762787
          -0.0617000013589859 -0.9605000019073486 0.2712000012397766 0.4771000146865845 -0.838699996471405 0.262800008058548
          0.640999972820282 -0.7002999782562256 0.3142000138759613 0.611299991607666 -0.7502999901771545 0.2517000138759613
          0.030700000002980232 0.3720000088214874 -0.9276999831199646 0.5803999900817871 0.5662999749183655 -0.5852000117301941
          0.1274999976158142 0.9545999765396118 0.26930001378059387 -0.1859000027179718 0.7330999970436096 -0.65420001745224
          -0.47450000047683716 0.8267999887466431 0.3019999861717224 0.6205999851226807 -0.5088000297546387 -0.5965999960899353
          0.5232999920845032 -0.6230999827384949 -0.5813000202178955 0.5666000247001648 -0.6100000143051147 -0.5539000034332275
          -0.1826000064611435 -0.847000002861023 0.4993000030517578 -0.21119999885559082 -0.944100022315979 0.2529999911785126
          0.07750000059604645 -0.9945999979972839 -0.06870000064373016 0.3328000009059906 -0.1915999948978424 -0.92330002784729
          0.14429999887943268 -0.296999990940094 -0.9438999891281128 -0.07739999890327454 -0.06679999828338623 -0.9947999715805054
          -0.24699999392032623 0.2134999930858612 -0.9452000260353088 -0.3416999876499176 0.24300000071525574 -0.907800018787384
          -0.18889999389648438 0.16599999368190765 -0.9678000211715698 0.679099977016449 0.4203999936580658 -0.6018000245094299
          0.9100000262260437 0.10729999840259552 -0.4004000127315521 0.9440000057220459 -0.1632000058889389 -0.2867000102996826
          0.30979999899864197 -0.29649999737739563 0.9034000039100647 0.41659998893737793 0.22689999639987946 0.880299985408783
          0.522599995136261 -0.0568000003695488 0.8507000207901001 0.8112000226974487 -0.4016999900341034 0.42489999532699585
          0.6414999961853027 -0.4106000065803528 0.6478999853134155 0.7448999881744385 -0.3481999933719635 0.5690000057220459
          0.35339999198913574 -0.3725000023841858 0.8580999970436096 -0.24979999661445618 -0.2689000070095062 0.9301999807357788
          -0.11869999766349792 -0.5383999943733215 0.8342999815940857 0.5038999915122986 -0.10769999772310257 0.8569999933242798
          0.28040000796318054 -0.155799999833107 0.9472000002861023 0.5776000022888184 -0.12219999730587006 0.8070999979972839
          -0.8014000058174133 0.5662000179290771 -0.19290000200271606 -0.7296000123023987 0.4756999909877777 -0.49129998683929443
          -0.8568999767303467 0.4832000136375427 -0.17980000376701355 0.09539999812841415 0.9954000115394592 0.007499999832361937
          -0.11640000343322754 0.9857000112533569 0.12210000306367874 0.06549999862909317 0.986299991607666 0.15139999985694885
          -0.37689998745918274 0.251800000667572 0.8913999795913696 -0.552299976348877 0.3474999964237213 0.7577999830245972
          -0.4375999867916107 0.5080999732017517 0.7419000267982483 0.8245999813079834 0.28690001368522644 -0.48750001192092896
          0.9236999750137329 0.3418999910354614 0.1728000044822693 0.9157000184059143 -0.002899999963119626 -0.4018000066280365
          0.585099995136261 -0.7695000171661377 -0.25600001215934753 0.05270000174641609 -0.9986000061035156 0.00279999990016222
          0.22139999270439148 -0.420199990272522 -0.8799999952316284 -0.7434999942779541 0.6101999878883362 0.2736000120639801
          -0.9070000052452087 0.37380000948905945 0.193900004029274 -0.4781000018119812 0.7681999802589417 -0.42590001225471497
          -0.3260999917984009 -0.7462999820709229 0.580299973487854 -0.4205999970436096 -0.7486000061035156 0.512499988079071
          -0.16779999434947968 -0.9362999796867371 0.3084000051021576 -0.06970000267028809 -0.9057000279426575 0.41819998621940613
          -0.0032999999821186066 -0.9344000220298767 0.3562999963760376 -0.10019999742507935 -0.8852999806404114 0.45410001277923584
          0.887499988079071 0.36340001225471497 0.2833999991416931 0.8970000147819519 0.29179999232292175 -0.3319000005722046
          0.9308000206947327 0.36320000886917114 0.040300000458955765 0.9508000016212463 0.2824999988079071 -0.12710000574588776
          0.911899983882904 0.3912000060081482 -0.12389999628067017 0.8220000267028809 0.5679000020027161 -0.04390000179409981
          0.13830000162124634 0.9370999932289124 -0.320499986410141 0.06480000168085098 0.7353000044822693 -0.6746000051498413
          0.17679999768733978 0.9297999739646912 -0.32280001044273376 -0.4108999967575073 -0.5577999949455261 -0.7210999727249146
          -0.44279998540878296 -0.19979999959468842 -0.8741000294685364 0.23739999532699585 -0.614799976348877 0.7520999908447266
          0.38359999656677246 -0.48500001430511475 0.7858999967575073 0.08489999920129776 -0.3749000132083893 0.9232000112533569
          0.17030000686645508 -0.5160999894142151 0.8393999934196472 0.30959999561309814 -0.717199981212616 0.6243000030517578
          0.2513999938964844 0.21870000660419464 0.9429000020027161 -0.047200001776218414 -0.00430000014603138 0.9988999962806702
          0.6862999796867371 0.11089999973773956 0.7188000082969666 0.5062999725341797 -0.2151000052690506 0.835099995136261
          -0.9689000248908997 0.11900000274181366 0.21719999611377716 -0.9182000160217285 0.22990000247955322 0.32269999384880066
          -0.9653000235557556 0.11379999667406082 0.23510000109672546 0.30300000309944153 -0.7120000123977661 -0.633400022983551
          0.3116999864578247 -0.5461999773979187 -0.7774999737739563 0.08100000023841858 -0.8091999888420105 -0.5819000005722046
          0.46950000524520874 -0.8734999895095825 -0.12860000133514404 0.6632999777793884 -0.7089999914169312 -0.2393999993801117
          0.6552000045776367 0.754800021648407 -0.03020000085234642 0.31299999356269836 0.9319000244140625 0.18330000340938568
          0.0478999987244606 0.7868000268936157 0.6152999997138977 0.6100000143051147 0.534500002861023 0.5849000215530396
          0.8490999937057495 0.16380000114440918 0.5022000074386597 0.29820001125335693 0.420199990272522 0.8569999933242798
          0.8820000290870667 0.42340001463890076 -0.2069000005722046 0.9273999929428101 0.019999999552965164 -0.3736000061035156
          -0.9211999773979187 0.2249000072479248 -0.3174000084400177 -0.9945999979972839 0.08340000361204147 -0.06260000169277191
          -0.9829000234603882 0.17949999868869781 -0.0414000004529953 -0.8496000170707703 0.5230000019073486 0.06809999793767929
          -0.8873999714851379 0.4560999870300293 0.06650000065565109 -0.8338000178337097 0.48829999566078186 0.2574999928474426
          0.3409999907016754 0.07900000363588333 -0.9366999864578247 0.35019999742507935 -0.01769999973475933 -0.9365000128746033
          0.4756999909877777 0.2912999987602234 -0.8299999833106995 0.6777999997138977 0.39879998564720154 -0.6176999807357788
          0.571399986743927 0.28690001368522644 -0.7688999772071838 0.07970000058412552 0.04919999837875366 -0.9955999851226807
          0.03240000084042549 0.1859000027179718 -0.9819999933242798 -0.038600001484155655 0.020800000056624413 -0.9990000128746033
          0.6653000116348267 -0.4429999887943268 -0.6010000109672546 0.28630000352859497 -0.819599986076355 -0.49630001187324524
          0.8810999989509583 -0.10700000077486038 -0.4607999920845032 0.669700026512146 0.03269999846816063 -0.7419000267982483
          0.8303999900817871 -0.37380000948905945 -0.4131999909877777 0.7095000147819519 -0.6894999742507935 0.1451999992132187
          -0.6977999806404114 -0.16830000281333923 0.6962000131607056 -0.7282000184059143 0.32440000772476196 0.6036999821662903
          -0.6850000023841858 0.38839998841285706 0.6164000034332275 -0.5403000116348267 0.6815999746322632 0.4934000074863434
          -0.07919999957084656 0.9706000089645386 0.22709999978542328 -0.29490000009536743 0.864799976348877 0.40630000829696655
          -0.8682000041007996 -0.3425999879837036 0.35899999737739563 -0.7760999798774719 -0.46790000796318054 0.4226999878883362
          0.5098999738693237 -0.640500009059906 0.5741999745368958 0.6833999752998352 -0.3262999951839447 0.6531000137329102
          0.2881999909877777 -0.6887000203132629 0.6654000282287598 0.8321999907493591 0.4717000126838684 -0.29120001196861267
          0.8569999933242798 0.4973999857902527 -0.13490000367164612 0.762499988079071 0.4968000054359436 -0.41449999809265137
          -0.3037000000476837 -0.3215999901294708 -0.8967999815940857 -0.2410999983549118 -0.09080000221729279 -0.9661999940872192
          -0.492000013589859 -0.6050999760627747 -0.6258999705314636 -0.6180999875068665 -0.7138000130653381 -0.3292999863624573
          -0.7580000162124634 -0.6057000160217285 -0.2418999969959259 -0.46540001034736633 0.5012000203132629 0.7294999957084656
          -0.6610999703407288 0.44110000133514404 0.6069999933242798 -0.4715000092983246 0.6003999710083008 0.6459000110626221
          -0.3167000114917755 0.8959000110626221 0.3116999864578247 0.19140000641345978 -0.921500027179718 0.33799999952316284
          0.22769999504089355 -0.9458000063896179 0.23160000145435333 0.6025999784469604 -0.7809000015258789 -0.16459999978542328
          0.16750000417232513 -0.9843000173568726 0.05660000070929527 0.4235999882221222 -0.8877000212669373 -0.18050000071525574
          0.1850000023841858 -0.9783999919891357 0.09220000356435776 0.6003999710083008 0.6780999898910522 -0.4239000082015991
          0.795199990272522 0.5805000066757202 -0.1753000020980835 0.8208000063896179 0.5067999958992004 -0.26350000500679016
          -0.7820000052452087 -0.5293999910354614 0.32899999618530273 -0.6140999794006348 -0.6114000082015991 0.49900001287460327
          -0.7195000052452087 -0.5728999972343445 -0.39250001311302185 0.6575000286102295 -0.5479999780654907 0.5170999765396118
          0.7193999886512756 -0.13269999623298645 0.6818000078201294 0.8884999752044678 -0.14749999344348907 0.4345000088214874
          -0.131400004029274 -0.9854000210762024 0.10809999704360962 -0.1704999953508377 -0.9280999898910522 0.33090001344680786
          -0.37540000677108765 -0.7989000082015991 0.4699999988079071 -0.27410000562667847 -0.8033000230789185 0.5288000106811523
          -0.2363000065088272 -0.6589000225067139 0.7142000198364258 0.27410000562667847 -0.5192000269889832 0.809499979019165
          0.3093000054359436 -0.21230000257492065 0.9269999861717224 -0.08810000121593475 0.13369999825954437 0.9871000051498413
          0.6826000213623047 -0.45820000767707825 0.5692999958992004 0.7656000256538391 -0.5856999754905701 0.26600000262260437
          -0.2879999876022339 -0.45820000767707825 0.8409000039100647 -0.06710000336170197 -0.632099986076355 0.7718999981880188
          -0.435699999332428 -0.8115000128746033 0.38940000534057617 0.3630000054836273 -0.5091000199317932 0.7803999781608582
          -0.053199999034404755 -0.31029999256134033 0.9491999745368958 0.9023000001907349 -0.24150000512599945 0.3573000133037567
          0.4050000011920929 -0.7835000157356262 0.47130000591278076 0.9643999934196472 -0.053199999034404755 -0.2590000033378601
          0.8779000043869019 -0.46650001406669617 -0.10840000212192535 0.8234000205993652 -0.4481000006198883 0.3481999933719635
          0.9613000154495239 0.19740000367164612 0.1923000067472458 0.9980000257492065 -0.023099999874830246 -0.05849999934434891
          0.8701000213623047 0.40369999408721924 -0.2825999855995178 0.9824000000953674 0.16009999811649323 0.09669999778270721
          0.38609999418258667 0.885699987411499 0.257999986410141 0.3456999957561493 0.9121999740600586 0.22020000219345093
          0.19629999995231628 0.9452999830245972 0.2606000006198883 0.4174000024795532 -0.906499981880188 -0.06350000202655792
          0.6208000183105469 -0.7797999978065491 0.08100000023841858 0.5489000082015991 -0.8041999936103821 0.2281000018119812
          0.2475000023841858 0.09109999984502792 -0.9646000266075134 -0.06390000134706497 0.07999999821186066 -0.994700014591217
          0.2619999945163727 0.2685000002384186 -0.9269999861717224 -0.3898000121116638 0.2296999990940094 -0.8917999863624573
          -0.09730000048875809 0.36899998784065247 -0.9243000149726868 -0.29409998655319214 0.09520000219345093 -0.9509999752044678
          0.8598999977111816 0.3073999881744385 -0.4075999855995178 0.7283999919891357 0.6187999844551086 -0.29420000314712524
          -0.06780000030994415 -0.3450999855995178 0.9361000061035156 0.16660000383853912 -0.8325999975204468 0.5281999707221985
          0.006099999882280827 -0.7889999747276306 0.6144000291824341 0.4544000029563904 -0.5702000260353088 0.6844000220298767
          0.03959999978542328 -0.8794000148773193 0.47440001368522644 -0.9217000007629395 0.06030000001192093 0.3831000030040741
          -0.9107999801635742 0.25949999690055847 0.32120001316070557 -0.895799994468689 0.2700999975204468 0.35280001163482666
          -0.06340000033378601 0.8727999925613403 0.48399999737739563 0.18870000541210175 0.6585000157356262 0.7285000085830688
          -0.3325999975204468 0.06430000066757202 0.9409000277519226 0.7034000158309937 0.09099999815225601 0.7049000263214111
          0.382999986410141 -0.5809999704360962 0.7182000279426575 0.8264999985694885 -0.052000001072883606 0.5605999827384949
          -0.8622000217437744 0.4726000130176544 -0.18240000307559967 -0.9812999963760376 0.1914999932050705 -0.017999999225139618
          -0.8614000082015991 0.21040000021457672 -0.46239998936653137 -0.4194999933242798 0.3765000104904175 -0.8259999752044678
          0.7667999863624573 -0.45570001006126404 0.45210000872612 0.4884999990463257 -0.44769999384880066 0.7490000128746033
          0.4074999988079071 -0.5060999989509583 -0.7601000070571899 0.49639999866485596 -0.7312999963760376 -0.4677000045776367
          -0.10790000110864639 0.6812999844551086 0.7239999771118164 -0.17730000615119934 0.6327000260353088 0.7537999749183655
          -0.16840000450611115 0.483599990606308 0.8589000105857849 -0.5745999813079834 0.6033999919891357 0.5529999732971191
          0.17389999330043793 0.7588000297546387 0.6276999711990356 0.23420000076293945 -0.8190000057220459 0.5238999724388123
          -0.5625 0.28679999709129333 0.7754999995231628 -0.4699999988079071 0.3131999969482422 0.8252999782562256
          0.5566999912261963 -0.2092999964952469 0.8040000200271606 0.5702999830245972 0.210099995136261 0.7940999865531921
          0.262800008058548 -0.06539999693632126 0.9625999927520752 -0.6370000243186951 -0.4632999897003174 0.616100013256073
          -0.5471000075340271 -0.46000000834465027 0.6992999911308289 0.147599995136261 -0.9168999791145325 -0.3709000051021576
          0.08229999989271164 -0.9939000010490417 0.07289999723434448 -0.1673000007867813 -0.9452000260353088 -0.2802000045776367
          -0.9882000088691711 0.14910000562667847 -0.035599999129772186 -0.9204000234603882 0.36070001125335693 -0.1509999930858612
          -0.9132999777793884 0.4059999883174896 -0.0333000011742115 -0.6093000173568726 -0.39719998836517334 -0.6862999796867371
          -0.7214999794960022 -0.555400013923645 -0.41350001096725464 0.07289999723434448 -0.5860000252723694 -0.8069999814033508
          -0.00419999985024333 -0.12070000171661377 -0.9926999807357788 0.954200029373169 0.2736000120639801 0.12099999934434891
          0.9733999967575073 0.05400000140070915 -0.22280000150203705 0.6080999970436096 0.5881999731063843 -0.5331000089645386
          0.5748999714851379 0.7254999876022339 -0.3783999979496002 0.503000020980835 0.5406000018119812 -0.6743000149726868
          0.5544999837875366 0.48590001463890076 -0.675599992275238 0.8432000279426575 0.026000000536441803 -0.536899983882904
          0.07339999824762344 0.25119999051094055 -0.9652000069618225 0.18780000507831573 0.2745000123977661 -0.9430999755859375
          0.37299999594688416 0.15919999778270721 -0.9140999913215637 -0.019999999552965164 -0.7272999882698059 0.6859999895095825
          -0.15800000727176666 -0.7057999968528748 0.6905999779701233 -0.2526000142097473 -0.6948000192642212 0.67330002784729
          -0.15369999408721924 -0.9596999883651733 0.23510000109672546 -0.014000000432133675 -0.8780999779701233 -0.478300005197525
          -0.5547999739646912 -0.7494999766349792 0.3610999882221222 0.30329999327659607 0.012600000016391277 -0.9527999758720398
          -0.052000001072883606 -0.18549999594688416 -0.9812999963760376 0.000699999975040555 0.08739999681711197 -0.9962000250816345
          -0.6718000173568726 -0.7271999716758728 0.14069999754428864 -0.051100000739097595 -0.9315999746322632 -0.35989999771118164
          -0.010200000368058681 0.8414999842643738 0.5401999950408936 0.557200014591217 0.6650999784469604 -0.49720001220703125
          -0.03150000050663948 -0.1768999993801117 -0.9836999773979187 0.3034000098705292 0.4977000057697296 -0.8126000165939331
          0.0215000007301569 0.49799999594688416 -0.8669000267982483 0.12800000607967377 -0.9002000093460083 0.41620001196861267
          -0.2913999855518341 -0.33219999074935913 -0.8970999717712402 -0.6883000135421753 -0.10109999775886536 -0.7182999849319458
          -0.26649999618530273 0.5881999731063843 -0.7634999752044678 -0.35350000858306885 0.8224999904632568 0.445499986410141
          -0.40709999203681946 0.2921000123023987 0.8654000163078308 0.6665999889373779 0.42989999055862427 -0.609000027179718
          0.507099986076355 0.2498999983072281 -0.8248999714851379 0.5568000078201294 0.08429999649524689 -0.8263000249862671
          0.26899999380111694 0.3212999999523163 -0.9079999923706055 0.8950999975204468 0.3246000111103058 0.30570000410079956
          0.5426999926567078 0.4918000102043152 -0.680899977684021 0.9438999891281128 0.25760000944137573 -0.20669999718666077
          0.4860999882221222 -0.8726999759674072 -0.04670000076293945 0.4514999985694885 -0.8197000026702881 0.3522999882698059
          0.19660000503063202 -0.9800999760627747 0.028999999165534973 0.840399980545044 0.2743000090122223 -0.4675000011920929
          0.21639999747276306 -0.3407000005245209 -0.914900004863739 0.6791999936103821 -0.38690000772476196 -0.6237000226974487
          0.06870000064373016 0.384799987077713 -0.9204000234603882 -0.1151999980211258 0.29170000553131104 0.9495000243186951
          -0.1023000031709671 -0.7897999882698059 0.6047999858856201 0.35089999437332153 -0.8824999928474426 0.3133000135421753
          -0.06499999761581421 -0.7434999942779541 0.6656000018119812 0.6327999830245972 0.531499981880188 -0.5630999803543091
          0.6732000112533569 0.4625999927520752 -0.5767999887466431 0.6401000022888184 0.6417999863624573 -0.42239999771118164
          0.4462999999523163 0.7159000039100647 -0.5370000004768372 0.1370999962091446 0.9049999713897705 0.4027000069618225
          0.12030000239610672 0.6247000098228455 0.7716000080108643 -0.010599999688565731 0.7283999919891357 0.6850000023841858
          0.44589999318122864 0.7728000283241272 0.45159998536109924 0.027000000700354576 -0.6380000114440918 0.7695000171661377
          0.06949999928474426 -0.4896000027656555 0.8691999912261963 0.03869999945163727 -0.5246999859809875 0.8503999710083008
          0.10729999840259552 -0.5580000281333923 0.8228999972343445 0.06859999895095825 -0.6306999921798706 0.7730000019073486
          0.3682999908924103 -0.44600000977516174 0.8156999945640564 -0.739300012588501 0.4196000099182129 -0.5266000032424927
          -0.7439000010490417 0.3278000056743622 -0.5823000073432922 -0.16949999332427979 0.014100000262260437 0.9854000210762024
          0.14630000293254852 0.796999990940094 0.5860000252723694 0.382099986076355 0.9240999817848206 -0.006000000052154064
          0.5504000186920166 0.8238000273704529 -0.1354999989271164 -0.4650999903678894 -0.8104000091552734 0.3564000129699707
          -0.4025999903678894 -0.820900022983551 0.4049000144004822 -0.430400013923645 -0.8210999965667725 0.375
          0.11999999731779099 -0.8575000166893005 -0.5002999901771545 -0.5187000036239624 -0.16089999675750732 0.8396999835968018
          -0.33980000019073486 -0.11580000072717667 0.9333000183105469 0.033900000154972076 0.051500000059604645 -0.9980999827384949
          0.37059998512268066 0.3490000069141388 -0.8607000112533569 -0.6258000135421753 0.49149999022483826 0.6055999994277954
          -0.6225000023841858 0.6718000173568726 0.40139999985694885 -0.7991999983787537 0.4805000126361847 0.3612000048160553
          0.6287000179290771 0.5489000082015991 0.5508000254631042 0.3684999942779541 0.6463000178337097 0.6682000160217285
          0.23989999294281006 0.3188000023365021 0.9169999957084656 0.029400000348687172 0.6581000089645386 0.7523000240325928
          0.008700000122189522 0.2612000107765198 0.9652000069618225 0.6888999938964844 0.6827999949455261 0.24310000240802765
          0.7645999789237976 0.6414999961853027 -0.061500001698732376 0.5805000066757202 0.7989000082015991 0.15770000219345093
          -0.5805000066757202 0.6366999745368958 0.5076000094413757 -0.5127999782562256 0.6456000208854675 0.5659000277519226
          -0.13490000367164612 -0.13699999451637268 -0.9812999963760376 -0.008799999952316284 -0.05090000107884407 -0.9987000226974487
          -0.39419999718666077 0.05249999836087227 -0.9175000190734863 -0.5827000141143799 0.1809999942779541 -0.7922000288963318
          -0.5972999930381775 0.32749998569488525 0.732200026512146 -0.758400022983551 0.08640000224113464 0.6460000276565552
          -0.8693000078201294 0.23280000686645508 0.4359999895095825 -0.7412999868392944 -0.22750000655651093 0.6315000057220459
          -0.885200023651123 0.058400001376867294 0.46149998903274536 0.8517000079154968 0.5238999724388123 0.01489999983459711
          0.5490999817848206 0.1906999945640564 0.8137000203132629 0.08789999783039093 -0.14650000631809235 -0.9853000044822693
          0.25780001282691956 -0.149399995803833 -0.9545999765396118 0.2775000035762787 -0.0340999998152256 -0.960099995136261
          0.4537999927997589 -0.18389999866485596 -0.8719000220298767 0.10339999943971634 -0.7904999852180481 -0.6036999821662903
          -0.24070000648498535 -0.8314999938011169 -0.5005999803543091 0.27090001106262207 -0.824400007724762 -0.4968999922275543
          0.7224000096321106 -0.6912999749183655 -0.014100000262260437 0.8733000159263611 -0.4560999870300293 -0.17139999568462372
          0.6175000071525574 0.039500001817941666 0.7856000065803528 0.47920000553131104 -0.8543999791145325 -0.20080000162124634
          -0.6783999800682068 -0.2775000035762787 0.6802999973297119 -0.703000009059906 0.3327000141143799 0.628600001335144
          -0.4327000081539154 -0.5776000022888184 0.6922000050544739 0.013000000268220901 -0.9498000144958496 0.3127000033855438
          -0.870199978351593 0.42649999260902405 0.24639999866485596 -0.8616999983787537 0.4726000130176544 0.18469999730587006
          0.49869999289512634 -0.04259999841451645 0.8657000064849854 0.24580000340938568 -0.28110000491142273 0.9276999831199646
          0.573199987411499 0.5981000065803528 0.5601000189781189 0.5860999822616577 -0.27959999442100525 -0.7603999972343445
          0.8988000154495239 -0.20090000331401825 -0.3896999955177307 0.6535000205039978 -0.13680000603199005 -0.7444999814033508
          0.6812000274658203 0.6937000155448914 -0.23389999568462372 0.9552000164985657 0.28859999775886536 -0.06480000168085098
          0.8646000027656555 0.45159998536109924 0.22030000388622284 0.38749998807907104 -0.3808000087738037 0.8395000100135803
          0.08349999785423279 -0.5526000261306763 0.8292999863624573 0.722599983215332 0.4596000015735626 -0.5163000226020813
          0.5751000046730042 0.2547000050544739 -0.777400016784668 0.9214000105857849 0.29019999504089355 -0.25850000977516174