<?xml version="1.0"?>
<VTKFile type="PolyData" version="0.1" byte_order="LittleEndian" header_type="UInt32" compressor="vtkZLibDataCompressor">
  <PolyData>
    <FieldData>
      <Array type="String" Name="MaterialNames" NumberOfTuples="1" format="ascii">
        109 97 116 101 114 105 97 108 95 48 0
      </Array>
      <Array type="String" Name="MaterialLibraries" NumberOfTuples="1" format="ascii">
        109 97 116 101 114 105 97 108 46 109 116 108 0
      </Array>
    </FieldData>
    <Piece NumberOfPoints="910" NumberOfVerts="0" NumberOfLines="0" NumberOfStrips="0" NumberOfPolys="1752">
      <PointData Normals="Normals">
        <DataArray type="Float32" Name="Normals" NumberOfComponents="3" format="ascii" RangeMin="0.999923228096138" RangeMax="1.0000710803102228">
          0.4756999909877777 -0.05389999970793724 -0.8779000043869019 0.35910001397132874 -0.050999999046325684 -0.9319000244140625
          0.2485000044107437 0.01119999960064888 -0.9685999751091003 -0.7077000141143799 -0.6948999762535095 0.12759999930858612
          -0.6757000088691711 -0.7303000092506409 -0.10029999911785126 -0.8718000054359436 -0.4894999861717224 -0.0203000009059906
          -0.6628000140190125 0.2578999996185303 -0.703000009059906 -0.5389999747276306 0.2847999930381775 -0.7926999926567078
          -0.5587999820709229 0.3181000053882599 -0.7659000158309937 -0.15119999647140503 -0.09239999949932098 0.9842000007629395
          -0.10740000009536743 -0.3237000107765198 0.9399999976158142 -0.18940000236034393 -0.06700000166893005 0.9796000123023987
          0.917900025844574 0.20520000159740448 -0.33959999680519104 0.9172999858856201 0.31130000948905945 -0.24819999933242798
          0.9936000108718872 0.11029999703168869 -0.02370000071823597 -0.019600000232458115 0.9995999932289124 -0.022299999371170998
          -0.09560000151395798 0.9876999855041504 -0.1234000027179718 -0.10610000044107437 0.9900000095367432 -0.09269999712705612
          -0.6359999775886536 -0.3294999897480011 -0.6977999806404114 -0.6392999887466431 -0.5891000032424927 -0.4943000078201294
          -0.6675000190734863 -0.31459999084472656 -0.6747999787330627 0.8154000043869019 0.5065000057220459 0.2802000045776367
          0.8668000102043152 0.4984000027179718 -0.01640000008046627 0.8737999796867371 0.44679999351501465 0.19210000336170197
          0.3393000066280365 -0.9210000038146973 -0.1915999948978424 0.12099999934434891 -0.9865999817848206 0.10970000177621841
          -0.17389999330043793 -0.984000027179718 -0.039400000125169754 -0.9020000100135803 -0.366100013256073 -0.2287999987602234
          -0.8069999814033508 -0.45669999718666077 -0.37439998984336853 -0.6657999753952026 -0.39469999074935913 -0.6331999897956848
          -0.2816999852657318 0.25119999051094055 -0.9259999990463257 -0.21080000698566437 0.30300000309944153 -0.9294000267982483
          -0.1339000016450882 0.1582999974489212 -0.9782999753952026 -0.7023000121116638 -0.6047999858856201 0.37549999356269836
          -0.46639999747276306 -0.7882999777793884 0.40130001306533813 -0.39239999651908875 -0.4456999897956848 0.8044999837875366
          -0.8651999831199646 -0.07999999821186066 0.4950000047683716 -0.9018999934196472 0.011800000444054604 0.4318000078201294
          -0.91839998960495 -0.04500000178813934 0.3930000066757202 -0.15459999442100525 -0.07800000160932541 0.9848999977111816
          0.10130000114440918 -0.38999998569488525 0.9151999950408936 0.22920000553131104 -0.32710000872612 0.9168000221252441
          0.5418000221252441 0.8126999735832214 -0.21459999680519104 0.3865000009536743 0.9203000068664551 -0.06129999831318855
          0.31850001215934753 0.9283000230789185 -0.19189999997615814 -0.30809998512268066 -0.1664000004529953 0.9366999864578247
          -0.12189999967813492 0.09480000287294388 0.9879999756813049 -0.3522000014781952 -0.12770000100135803 0.9272000193595886
          0.07259999960660934 -0.46470001339912415 0.8824999928474426 0.10819999873638153 -0.5516999959945679 0.8270000219345093
          -0.1324000060558319 -0.39089998602867126 0.9107999801635742 -0.257999986410141 0.26989999413490295 0.9276999831199646
          -0.302700012922287 0.6531999707221985 0.6940000057220459 -0.632099986076355 0.2784000039100647 0.7231000065803528
          0.9284999966621399 -0.023099999874830246 0.37059998512268066 0.9373999834060669 0.15070000290870667 0.3140999972820282
          0.7329999804496765 -0.08860000222921371 0.6743999719619751 0.6021999716758728 0.7962999939918518 0.057100001722574234
          0.5568000078201294 0.8083999752998352 0.19099999964237213 0.5066999793052673 0.8460999727249146 0.16529999673366547
          -0.022199999541044235 0.12690000236034393 -0.9916999936103821 -0.0869000032544136 0.2712000012397766 -0.9585999846458435
          0.8881000280380249 -0.34700000286102295 0.3012999892234802 0.7914999723434448 -0.48100000619888306 0.37709999084472656
          0.9089999794960022 -0.41589999198913574 0.0272000003606081 0.4544999897480011 -0.7386000156402588 -0.49790000915527344
          0.5914000272750854 -0.7531999945640564 -0.288100004196167 0.5504999756813049 -0.5979999899864197 -0.5824999809265137
          0.25940001010894775 0.7749999761581421 0.5763000249862671 0.2727999985218048 0.8536999821662903 0.44359999895095825
          0.17020000517368317 0.6966000199317932 0.6970000267028809 0.04450000077486038 -0.26750001311302185 0.9624999761581421
          -0.6466000080108643 -0.7502999901771545 -0.13770000636577606 -0.6473000049591064 -0.7134000062942505 -0.2685000002384186
          -0.5812000036239624 -0.5322999954223633 -0.6155999898910522 -0.7678999900817871 0.30809998512268066 -0.5616999864578247
          -0.7901999950408936 0.2842000126838684 -0.5429999828338623 -0.8515999913215637 0.2087000012397766 -0.48080000281333923
          -0.15919999778270721 0.8841999769210815 0.4390999972820282 -0.045499999076128006 0.9368000030517578 0.3467999994754791
          -0.21389999985694885 0.8521000146865845 0.47769999504089355 -0.9768000245094299 0.15240000188350677 -0.15080000460147858
          -0.9697999954223633 0.21230000257492065 -0.11969999969005585 -0.8858000040054321 0.21539999544620514 -0.41100001335144043
          0.7059000134468079 0.15360000729560852 -0.6915000081062317 0.6333000063896179 0.10339999943971634 -0.7670000195503235
          0.5928999781608582 0.2070000022649765 -0.7781999707221985 0.651199996471405 0.3149000108242035 -0.690500020980835
          0.5324000120162964 0.3481000065803528 -0.7716000080108643 0.527400016784668 0.4569999873638153 -0.7163000106811523
          0.453000009059906 -0.6509000062942505 -0.6090999841690063 0.47279998660087585 -0.590399980545044 -0.6541000008583069
          0.5376999974250793 -0.6230999827384949 -0.5680000185966492 -0.5473999977111816 0.6468999981880188 0.531000018119812
          -0.7870000004768372 0.12370000034570694 0.6043999791145325 -0.7882999777793884 0.2750999927520752 0.5503000020980835
          -0.7870000004768372 0.004100000020116568 0.6169999837875366 -0.828000009059906 -0.0032999999821186066 0.5608000159263611
          0.748199999332428 -0.3287000060081482 0.5763999819755554 0.5271000266075134 -0.3073999881744385 0.7922000288963318
          0.5194000005722046 -0.4724000096321106 0.7121000289916992 -0.25949999690055847 -0.9639000296592712 -0.05939999967813492
          -0.4724000096321106 -0.8810999989509583 -0.024000000208616257 -0.39430001378059387 -0.91839998960495 0.032999999821186066
          0.06459999829530716 0.5278000235557556 0.8468999862670898 0.3628999888896942 0.358599990606308 0.8600999712944031
          0.49399998784065247 0.5906999707221985 0.6380000114440918 0.9772999882698059 -0.05420000106096268 0.2046000063419342
          0.9722999930381775 -0.1307000070810318 -0.1940000057220459 0.6640999913215637 -0.7457000017166138 -0.054099999368190765
          0.522599995136261 -0.7475000023841858 -0.4101000130176544 0.7763000130653381 -0.5662999749183655 -0.2768999934196472
          0.035999998450279236 -0.41290000081062317 -0.910099983215332 -0.16500000655651093 -0.2680000066757202 -0.9491999745368958
          -0.004800000227987766 -0.21889999508857727 -0.9757000207901001 -0.6866000294685364 -0.3750999867916107 0.6227999925613403
          -0.529699981212616 -0.28519999980926514 0.798799991607666 -0.41620001196861267 -0.5145000219345093 0.7498000264167786
          -0.4406000077724457 -0.8968999981880188 0.03869999945163727 -0.4246000051498413 -0.8273000121116638 0.3677999973297119
          -0.45559999346733093 -0.8712000250816345 0.18279999494552612 -0.9402999877929688 -0.032099999487400055 0.33899998664855957
          -0.9498000144958496 0.3025999963283539 -0.07900000363588333 -0.9692999720573425 0.21279999613761902 -0.1234000027179718
          0.20430000126361847 -0.4009999930858612 0.8930000066757202 -0.18559999763965607 -0.4738999903202057 0.86080002784729
          -0.22370000183582306 -0.5339999794960022 0.8152999877929688 0.4560999870300293 0.8526999950408936 -0.2547999918460846
          0.29339998960494995 0.9372000098228455 -0.18850000202655792 0.3749000132083893 0.9269999861717224 -0.014399999752640724
          0.20309999585151672 0.4377000033855438 -0.8758999705314636 0.07320000231266022 0.4717999994754791 -0.8787000179290771
          0.1882999986410141 0.5432999730110168 -0.8180999755859375 -0.8424999713897705 0.057100001722574234 0.5356000065803528
          -0.8948000073432922 0.042899999767541885 0.44440001249313354 -0.866100013256073 0.07859999686479568 0.4936999976634979
          -0.4131999909877777 -0.9083999991416931 -0.06449999660253525 -0.0026000000070780516 -0.9944999814033508 -0.10450000315904617
          -0.3792000114917755 -0.8561000227928162 0.35120001435279846 0.753600001335144 0.24979999661445618 -0.6079999804496765
          0.762499988079071 0.19110000133514404 -0.6180999875068665 0.6798999905586243 0.12549999356269836 -0.7225000262260437
          0.6003999710083008 -0.39719998836517334 -0.694100022315979 0.6635000109672546 -0.28360000252723694 -0.692300021648407
          0.6847000122070312 -0.21050000190734863 -0.6977999806404114 0.7513999938964844 0.5979999899864197 0.27869999408721924
          0.7045999765396118 0.5831999778747559 0.4041999876499176 -0.2240000069141388 0.6061999797821045 0.7631000280380249
          -0.24869999289512634 0.7581999897956848 0.6026999950408936 0.2329999953508377 0.6620000004768372 0.7124000191688538
          -0.7261999845504761 -0.510200023651123 0.46070000529289246 -0.7678999900817871 -0.3447999954223633 0.5397999882698059
          -0.7233999967575073 -0.4000000059604645 0.5627999901771545 -0.4000999927520752 -0.6187999844551086 0.6759999990463257
          -0.664900004863739 -0.4453999996185303 0.5996000170707703 -0.7057999968528748 -0.4049000144004822 0.5813000202178955
          -0.508899986743927 -0.014499999582767487 -0.8607000112533569 -0.6385999917984009 -0.26739999651908875 -0.7215999960899353
          -0.19020000100135803 -0.5580000281333923 -0.807699978351593 0.6858999729156494 -0.5727999806404114 0.4489000141620636
          0.5533999800682068 -0.43380001187324524 0.7110999822616577 0.44780001044273376 -0.3043999969959259 0.8406999707221985
          0.08869999647140503 0.9473999738693237 0.3075999915599823 -0.0949999988079071 0.9265000224113464 0.36399999260902405
          -0.21559999883174896 0.9488999843597412 0.2304999977350235 0.4593999981880188 0.8666999936103821 0.19439999759197235
          0.48260000348091125 0.8119000196456909 0.32850000262260437 -0.0010000000474974513 0.5710999965667725 -0.820900022983551
          -0.33390000462532043 0.5163999795913696 -0.7886000275611877 -0.46299999952316284 0.5995000004768372 -0.6528000235557556
          -0.3831000030040741 0.6610000133514404 -0.6452000141143799 0.86080002784729 -0.3790999948978424 0.33959999680519104
          0.9435999989509583 -0.2955000102519989 -0.149399995803833 0.1378999948501587 -0.7429999709129333 0.6549000144004822
          -0.04919999837875366 -0.7825000286102295 0.6207000017166138 0.02370000071823597 -0.7573999762535095 0.6524999737739563
          -0.9025999903678894 -0.4081000089645386 0.1370999962091446 -0.925599992275238 -0.28610000014305115 0.24789999425411224
          -0.8985999822616577 -0.27090001106262207 0.3450999855995178 -0.4090999960899353 0.7706000208854675 -0.4887000024318695
          -0.4936000108718872 0.6535000205039978 -0.5738000273704529 -0.365200012922287 0.796999990940094 -0.48100000619888306
          -0.7705000042915344 0.6004999876022339 0.21389999985694885 -0.8253999948501587 0.5414999723434448 -0.15929999947547913
          -0.9384999871253967 0.32589998841285706 0.11400000005960464 0.6919999718666077 0.6934999823570251 0.20029999315738678
          0.5716999769210815 0.8199999928474426 -0.026599999517202377 0.48559999465942383 0.8572999835014343 0.17100000381469727
          0.5218999981880188 0.43650001287460327 0.7329000234603882 -0.954200029373169 -0.29249998927116394 -0.06289999932050705
          -0.9200000166893005 -0.006200000178068876 -0.3917999863624573 -0.777400016784668 -0.32199999690055847 -0.5403000116348267
          -0.26429998874664307 0.03739999979734421 -0.963699996471405 -0.39329999685287476 0.1428000032901764 -0.9082000255584717
          -0.21439999341964722 -0.04039999842643738 -0.9758999943733215 -0.7663999795913696 0.49540001153945923 0.4088999927043915
          -0.8356000185012817 0.44589999318122864 0.32100000977516174 -0.4627000093460083 -0.17679999768733978 0.8687000274658203
          -0.6104999780654907 -0.030799999833106995 0.7914000153541565 -0.3921999931335449 -0.14980000257492065 0.9075999855995178
          -0.41040000319480896 -0.9042999744415283 0.11800000071525574 -0.4180999994277954 -0.8443999886512756 0.33489999175071716
          -0.28940001130104065 -0.9390000104904175 0.1858000010251999 -0.6507999897003174 -0.6944000124931335 0.30709999799728394
          -0.6668000221252441 -0.5932999849319458 0.45100000500679016 -0.6660000085830688 -0.6043000221252441 0.4372999966144562
          0.9476000070571899 -0.19110000133514404 0.25619998574256897 0.9937000274658203 -0.07810000330209732 -0.08049999922513962
          0.6699000000953674 -0.3314000070095062 0.6643999814987183 0.4772000014781952 0.7795000076293945 -0.4058000147342682
          0.16820000112056732 0.7856000065803528 -0.5954999923706055 0.42250001430511475 0.7006999850273132 -0.5748999714851379
          -0.7689999938011169 -0.26739999651908875 -0.5806999802589417 -0.876800000667572 -0.3783999979496002 -0.29679998755455017
          0.17990000545978546 -0.019899999722838402 -0.9835000038146973 0.19120000302791595 -0.05739999935030937 -0.9799000024795532
          0.12389999628067017 0.0012000000569969416 -0.9922999739646912 0.06390000134706497 -0.2651999890804291 -0.9621000289916992
          0.2621999979019165 -0.18780000507831573 -0.9466000199317932 0.44600000977516174 -0.5044000148773193 0.7394000291824341
          0.18230000138282776 -0.5212000012397766 0.8337000012397766 0.30630001425743103 -0.512499988079071 0.8022000193595886
          0.7145000100135803 -0.1720999926328659 0.6780999898910522 0.8966000080108643 0.02889999933540821 0.44190001487731934
          0.7513999938964844 0.1152999997138977 0.6496999859809875 0.6495000123977661 -0.3986999988555908 -0.6474000215530396
          0.7139000296592712 -0.4641999900341034 -0.5242000222206116 0.7217000126838684 -0.31130000948905945 -0.6183000206947327
          0.5480999946594238 -0.430400013923645 -0.717199981212616 0.888700008392334 0.3490999937057495 -0.2973000109195709
          0.7875000238418579 0.31060001254081726 -0.5321999788284302 0.8041999936103821 0.18930000066757202 -0.5633999705314636
          0.7253999710083008 0.6840000152587891 -0.07689999788999557 0.7822999954223633 0.6018000245094299 -0.16089999675750732
          0.6834999918937683 0.7299000024795532 -0.005200000014156103 -0.18729999661445618 0.1177000030875206 0.9751999974250793
          -0.15129999816417694 0.47510001063346863 0.8668000102043152 -0.05790000036358833 0.4348999857902527 0.8985999822616577
          -0.08060000091791153 -0.028999999165534973 0.9962999820709229 -0.020999999716877937 -0.004600000102072954 0.9998000264167786
          -0.060600001364946365 -0.121799997985363 0.9907000064849854 0.03680000081658363 -0.5935999751091003 0.8039000034332275
          0.031599998474121094 -0.31360000371932983 0.9490000009536743 -0.3959999978542328 -0.36649999022483826 0.8418999910354614
          -0.8102999925613403 0.0851999968290329 0.579800009727478 -0.12610000371932983 -0.9247000217437744 0.35929998755455017
          -0.48669999837875366 -0.7882999777793884 0.3765000104904175 -0.2635999917984009 -0.79339998960495 0.5486999750137329
          -0.7350000143051147 -0.39340001344680786 0.552299976348877 -0.7533000111579895 -0.5861999988555908 0.29820001125335693
          0.15119999647140503 0.24609999358654022 0.9574000239372253 0.359499990940094 0.5842999815940857 0.7275000214576721
          0.22949999570846558 0.44339999556541443 0.8664000034332275 -0.5188999772071838 0.4171999990940094 0.7461000084877014
          -0.32089999318122864 0.3443000018596649 0.8823000192642212 -0.2969000041484833 0.6399999856948853 0.7087000012397766
          0.7871000170707703 0.08240000158548355 -0.611299991607666 0.767799973487854 0.08089999854564667 -0.6355000138282776
          0.7865999937057495 0.06639999896287918 -0.6139000058174133 0.6406999826431274 -0.2816999852657318 -0.7142999768257141
          0.6575999855995178 -0.26339998841285706 -0.7057999968528748 0.5679000020027161 -0.13189999759197235 -0.8125
          0.7387999892234802 -0.6696000099182129 -0.07599999755620956 0.8931999802589417 -0.44600000977516174 -0.0575999990105629
          0.6578999757766724 -0.7434999942779541 0.11990000307559967 -0.8544999957084656 -0.09380000084638596 0.5109000205993652
          -0.7756999731063843 0.04470000043511391 0.6294999718666077 -0.7864000201225281 0.053199999034404755 0.6154999732971191
          0.8048999905586243 0.11490000039339066 0.5821999907493591 0.8962000012397766 0.42910000681877136 -0.11289999634027481
          0.8899999856948853 0.3813999891281128 -0.24979999661445618 0.8251000046730042 0.5546000003814697 -0.10769999772310257
          -0.40560001134872437 -0.7258999943733215 0.555400013923645 -0.15790000557899475 -0.31940001249313354 0.9344000220298767
          -0.7250999808311462 -0.10339999943971634 -0.6808000206947327 -0.6819000244140625 0.16169999539852142 -0.7134000062942505
          -0.5662000179290771 0.2727000117301941 -0.777899980545044 -0.5288000106811523 0.250900000333786 -0.8108000159263611
          -0.5097000002861023 0.31060001254081726 -0.802299976348877 -0.38690000772476196 -0.8629000186920166 0.32499998807907104
          0.24009999632835388 -0.9491000175476074 -0.2037999927997589 0.917900025844574 -0.21660000085830688 0.33239999413490295
          0.9036999940872192 -0.4097999930381775 -0.12409999966621399 -0.8016999959945679 0.20919999480247498 -0.5598999857902527
          -0.25679999589920044 0.6650999784469604 -0.701200008392334 -0.3109999895095825 0.5550000071525574 -0.7716000080108643
          -0.21150000393390656 0.8371999859809875 -0.5044000148773193 0.06430000066757202 -0.9897000193595886 -0.1281999945640564
          -0.11490000039339066 -0.8978000283241272 0.4251999855041504 -0.29010000824928284 -0.9510999917984009 -0.10649999976158142
          -0.133200004696846 -0.6261000037193298 -0.7682999968528748 -0.2694999873638153 -0.6563000082969666 -0.704800009727478
          -0.2777000069618225 -0.3847000002861023 -0.880299985408783 0.6967999935150146 -0.39959999918937683 0.5956000089645386
          0.7885000109672546 -0.37549999356269836 0.4871000051498413 0.586899995803833 -0.5163999795913696 -0.6236000061035156
          0.5658000111579895 -0.6998999714851379 -0.4359000027179718 0.5056999921798706 -0.6021999716758728 -0.6176999807357788
          0.7355999946594238 -0.5705000162124634 -0.3652999997138977 0.8565999865531921 -0.5159000158309937 -0.01140000019222498
          0.678600013256073 -0.7283999919891357 -0.09430000185966492 0.5723999738693237 0.564300000667572 0.5947999954223633
          0.60589998960495 0.6022999882698059 0.5196999907493591 0.7059999704360962 0.5281000137329102 0.47189998626708984
          0.24889999628067017 -0.22290000319480896 0.9424999952316284 -0.29739999771118164 -0.3659999966621399 0.8817999958992004
          -0.9088000059127808 -0.2581000030040741 -0.3276999890804291 -0.7721999883651733 -0.5264000296592712 -0.35569998621940613
          0.4081999957561493 0.8004999756813049 -0.4388999938964844 0.3779999911785126 0.7117000222206116 -0.5921000242233276
          0.30480000376701355 0.8741999864578247 -0.3781000077724457 0.6122000217437744 0.4690000116825104 -0.6365000009536743
          0.5088000297546387 0.5993000268936157 -0.6180999875068665 0.31769999861717224 0.9473999738693237 -0.03849999979138374
          0.2732999920845032 0.9591000080108643 -0.07419999688863754 0.4253999888896942 0.8748999834060669 0.2312999963760376
          0.3075000047683716 0.8801000118255615 0.3617999851703644 0.33329999446868896 0.9311000108718872 0.14800000190734863
          -0.12280000001192093 -0.9376000165939331 -0.325300008058548 -0.12860000133514404 -0.9143000245094299 -0.3840999901294708
          -0.2535000145435333 -0.9304999709129333 -0.26440000534057617 -0.632099986076355 -0.7706999778747559 0.0803999975323677
          -0.5985999703407288 -0.7882000207901001 0.14300000667572021 -0.5092999935150146 -0.8482999801635742 -0.14480000734329224
          0.4390000104904175 -0.3765999972820282 -0.8158000111579895 0.1273999959230423 -0.3303000032901764 -0.9351999759674072
          0.2962000072002411 -0.8425999879837036 -0.4496999979019165 0.16619999706745148 -0.9059000015258789 -0.3894999921321869
          0.9664000272750854 0.25279998779296875 0.04659999907016754 0.8646000027656555 0.4925000071525574 -0.09929999709129333
          0.9609000086784363 0.2734000086784363 0.04340000078082085 0.9876999855041504 -0.09759999811649323 0.12219999730587006
          0.9031000137329102 -0.37790000438690186 0.20399999618530273 -0.9659000039100647 0.050700001418590546 0.2538999915122986
          -0.9768000245094299 0.20509999990463257 0.06109999865293503 -0.9904999732971191 0.11339999735355377 0.07769999653100967
          -0.8684999942779541 -0.36719998717308044 0.3328999876976013 -0.9168000221252441 -0.15389999747276306 0.3686000108718872
          -0.890500009059906 0.12349999696016312 0.43799999356269836 -0.7968000173568726 0.2443999946117401 0.5526000261306763
          -0.9359999895095825 0.2556000053882599 0.24220000207424164 0.8091999888420105 0.5045999884605408 -0.30090001225471497
          0.6614999771118164 0.7167999744415283 -0.22059999406337738 0.7049999833106995 0.49570000171661377 -0.5072000026702881
          0.7979999780654907 0.46320000290870667 -0.3855000138282776 0.9307000041007996 0.30799999833106995 0.1973000019788742
          -0.5302000045776367 0.05550000071525574 0.8460000157356262 -0.6967999935150146 0.25110000371932983 0.6718999743461609
          0.6517000198364258 0.09000000357627869 -0.7530999779701233 0.6335999965667725 0.1648000031709671 -0.7559000253677368
          0.5777000188827515 0.11980000138282776 -0.8073999881744385 0.7789000272750854 0.09080000221729279 -0.6205000281333923
          0.7412999868392944 0.05939999967813492 -0.6685000061988831 0.7663000226020813 -0.0007999999797903001 -0.6424000263214111
          0.6850000023841858 -0.2296999990940094 0.6913999915122986 0.5410000085830688 -0.15410000085830688 0.8267999887466431
          0.06080000102519989 0.9172999858856201 0.39340001344680786 0.2078000009059906 0.9168999791145325 -0.3407000005245209
          -0.16779999434947968 0.9789000153541565 0.11670000106096268 -0.5396999716758728 -0.7512000203132629 -0.3799999952316284
          -0.848800003528595 -0.5275999903678894 -0.03370000049471855 0.9074000120162964 -0.16040000319480896 -0.38839998841285706
          0.8453999757766724 -0.04919999837875366 -0.5317999720573425 0.8069999814033508 0.27799999713897705 -0.5210000276565552
          0.8546000123023987 0.1679999977350235 -0.49140000343322754 -0.8543000221252441 -0.510699987411499 0.09619999676942825
          -0.6920999884605408 -0.7203999757766724 -0.04430000111460686 0.24729999899864197 -0.8960000276565552 0.36880001425743103
          0.40209999680519104 -0.5188000202178955 0.7544000148773193 -0.02449999935925007 -0.4036000072956085 0.9146000146865845
          0.6718000173568726 -0.4821999967098236 0.5623000264167786 0.967199981212616 -0.1656000018119812 0.19290000200271606
          -0.6545000076293945 -0.2903999984264374 0.6980999708175659 -0.5357999801635742 -0.5490999817848206 0.6413999795913696
          -0.7558000087738037 -0.4961000084877014 -0.42730000615119934 -0.7531999945640564 -0.6524999737739563 0.08340000361204147
          -0.8651999831199646 0.28459998965263367 -0.41280001401901245 -0.8055999875068665 0.320499986410141 -0.498199999332428
          -0.7928000092506409 0.3643999993801117 -0.4884999990463257 -0.7157999873161316 0.3409999907016754 -0.6093999743461609
          -0.7477999925613403 0.4325999915599823 -0.503600001335144 -0.5063999891281128 0.8616999983787537 -0.03220000118017197
          -0.12809999287128448 0.9858999848365784 0.10809999704360962 -0.1598999947309494 0.8962000012397766 0.4138999879360199
          -0.11980000138282776 -0.3718999922275543 0.9204999804496765 0.15230000019073486 -0.9003000259399414 0.4077000021934509
          -0.36000001430511475 -0.6007999777793884 0.713699996471405 0.0989999994635582 -0.6830000281333923 0.7235999703407288
          0.8314999938011169 0.5533999800682068 0.048500001430511475 0.6618000268936157 0.6392999887466431 0.39169999957084656
          0.6514000296592712 0.7400000095367432 0.16769999265670776 0.9315000176429749 0.04010000079870224 0.3614000082015991
          0.9613000154495239 0.1891999989748001 0.20000000298023224 0.006599999964237213 0.29089999198913574 -0.9567000269889832
          0.4032999873161316 0.10920000076293945 -0.9085000157356262 -0.9386000037193298 -0.3255000114440918 0.11429999768733978
          -0.9842000007629395 -0.125900000333786 -0.12489999830722809 -0.9847000241279602 -0.1673000007867813 0.04780000075697899
          -0.00930000003427267 -0.1111999973654747 -0.9937999844551086 -0.013899999670684338 -0.06849999725818634 -0.9976000189781189
          -0.22910000383853912 -0.06620000302791595 -0.9711999893188477 -0.6687999963760376 -0.5598999857902527 -0.48910000920295715
          -0.4706000089645386 -0.45829999446868896 -0.7540000081062317 -0.5730999708175659 -0.4758000075817108 -0.6672000288963318
          -0.36649999022483826 -0.31279999017715454 -0.8762999773025513 -0.265500009059906 -0.11089999973773956 -0.9577000141143799
          -0.249099999666214 -0.1436000019311905 -0.9577999711036682 0.45190000534057617 -0.885200023651123 -0.11060000211000443
          -0.6625999808311462 0.10949999839067459 0.7408999800682068 -0.5242000222206116 0.22619999945163727 0.8209999799728394
          -0.20229999721050262 0.41999998688697815 0.8847000002861023 -0.7908999919891357 -0.039500001817941666 0.6107000112533569
          -0.7903000116348267 -0.004800000227987766 0.6126999855041504 -0.3330000042915344 0.13950000703334808 -0.9326000213623047
          -0.3646000027656555 0.025100000202655792 -0.9308000206947327 -0.45750001072883606 0.21860000491142273 -0.8618999719619751
          -0.5465999841690063 0.3747999966144562 -0.7487999796867371 -0.6478999853134155 0.4115999937057495 -0.6409000158309937
          -0.6765999794006348 0.33320000767707825 -0.6565999984741211 -0.13500000536441803 0.9289000034332275 0.3447999954223633
          0.4415000081062317 0.8116999864578247 0.3824999928474426 0.3400000035762787 0.8763999938964844 0.3411000072956085
          -0.05380000174045563 0.6074000000953674 -0.7925999760627747 -0.44850000739097595 0.3034999966621399 -0.8406999707221985
          -0.2971999943256378 0.29249998927116394 -0.9089000225067139 -0.871399998664856 0.273499995470047 -0.40720000863075256
          -0.9789000153541565 0.16210000216960907 -0.12409999966621399 -0.9735000133514404 0.15389999747276306 -0.16940000653266907
          -0.9617999792098999 0.03909999877214432 0.27090001106262207 -0.3833000063896179 -0.7142999768257141 0.5856000185012817
          -0.4474000036716461 -0.777400016784668 0.44209998846054077 -0.7063000202178955 -0.6748999953269958 0.21369999647140503
          -0.8309999704360962 -0.43560001254081726 0.34610000252723694 -0.5860000252723694 -0.31610000133514404 0.7461000084877014
          -0.7301999926567078 -0.20239999890327454 0.6525999903678894 -0.09650000184774399 -0.22120000422000885 0.9703999757766724
          -0.34610000252723694 -0.4456000030040741 0.8256000280380249 -0.39899998903274536 0.01979999989271164 0.916700005531311
          -0.5515000224113464 -0.20090000331401825 0.8095999956130981 0.5033000111579895 -0.71670001745224 -0.482699990272522
          0.5246000289916992 -0.6775000095367432 -0.5156000256538391 0.1728000044822693 0.9848999977111816 0.010400000028312206
          0.33739998936653137 0.9412999749183655 0.00930000003427267 0.3206000030040741 0.8867999911308289 0.3327000141143799
          0.11810000240802765 0.7426999807357788 0.6590999960899353 0.15790000557899475 0.6391000151634216 0.7526999711990356
          -0.2953000068664551 -0.9271000027656555 0.23080000281333923 0.00930000003427267 0.045899998396635056 0.9988999962806702
          -0.3646000027656555 -0.19900000095367432 0.9096999764442444 -0.25360000133514404 0.2500999867916107 0.9344000220298767
          -0.0478999987244606 0.43619999289512634 0.8985999822616577 -0.2628999948501587 0.5974000096321106 0.7576000094413757