<?xml version="1.0"?>
<VTKFile type="PolyData" version="0.1" byte_order="LittleEndian" header_type="UInt32" compressor="vtkZLibDataCompressor">
  <PolyData>
    <FieldData>
      <Array type="String" Name="MaterialNames" NumberOfTuples="1" format="ascii">
        109 97 116 101 114 105 97 108 95 48 0
      </Array>
      <Array type="String" Name="MaterialLibraries" NumberOfTuples="1" format="ascii">
        109 97 116 101 114 105 97 108 46 109 116 108 0
      </Array>
    </FieldData>
    <Piece NumberOfPoints="921" NumberOfVerts="0" NumberOfLines="0" NumberOfStrips="0" NumberOfPolys="1822">
      <PointData Normals="Normals">
        <DataArray type="Float32" Name="Normals" NumberOfComponents="3" format="ascii" RangeMin="0.9999283931579006" RangeMax="1.000065520031674">
          0.37059998512268066 -0.13850000500679016 -0.91839998960495 0.2551000118255615 0.07090000063180923 -0.9642999768257141
          0.45730000734329224 0.010599999688565731 -0.8892999887466431 0.4004000127315521 -0.31690001487731934 0.8597999811172485
          0.335099995136261 -0.23340000212192535 0.9128000140190125 0.47839999198913574 -0.2890999913215637 0.829200029373169
          -0.5683000087738037 -0.8159999847412109 -0.10599999874830246 -0.42260000109672546 -0.9039999842643738 -0.06449999660253525
          -0.26179999113082886 -0.9424999952316284 0.20759999752044678 -0.9020000100135803 0.42829999327659607 0.05429999902844429
          -0.8949000239372253 0.42309999465942383 0.14219999313354492 -0.8546000123023987 0.5070000290870667 0.1120000034570694
          0.782800018787384 0.618399977684021 0.06930000334978104 0.7483000159263611 0.6061999797821045 0.26930001378059387
          0.8075000047683716 0.5645999908447266 0.1703999936580658 -0.8385999798774719 0.4884999990463257 0.2409999966621399
          -0.8263000249862671 0.4327999949455261 0.3605000078678131 -0.7742000222206116 0.4496000111103058 0.4453999996185303
          0.16529999673366547 -0.2206999957561493 0.9611999988555908 0.26750001311302185 -0.035100001841783524 0.9628999829292297
          0.1451999992132187 -0.1379999965429306 0.9797000288963318 0.6590999960899353 -0.2822999954223633 -0.6970000267028809
          0.492900013923645 -0.28040000796318054 -0.8235999941825867 0.6039999723434448 -0.15379999577999115 -0.7820000052452087
          -0.39320001006126404 -0.5396999716758728 -0.7444000244140625 -0.5386999845504761 -0.5616000294685364 -0.6280999779701233
          -0.5950999855995178 -0.3955000042915344 -0.6995999813079834 -0.8032000064849854 0.5932999849319458 -0.054499998688697815
          -0.7820000052452087 0.5845999717712402 -0.21639999747276306 -0.8597000241279602 0.5095999836921692 -0.03370000049471855
          0.33880001306533813 0.003700000001117587 0.9408000111579895 0.41850000619888306 0.10369999706745148 0.9023000001907349
          0.4194999933242798 -0.06129999831318855 0.9057000279426575 0.3711000084877014 -0.12099999934434891 0.9207000136375427
          0.3319000005722046 -0.27160000801086426 0.9034000039100647 0.46209999918937683 -0.24300000071525574 0.8529000282287598
          -0.9919000267982483 0.11180000007152557 0.05959999933838844 -0.9930999875068665 0.012799999676644802 0.11680000275373459
          -0.9787999987602234 -0.03920000046491623 0.2011999934911728 0.4672999978065491 0.17309999465942383 0.8669999837875366
          0.45969998836517334 0.008200000040233135 0.8881000280380249 0.3781999945640564 0.10239999741315842 0.9200000166893005
          0.5806000232696533 0.8136000037193298 -0.02979999966919422 0.4341999888420105 0.8950999975204468 0.10159999877214432
          0.5734000205993652 0.8101000189781189 0.12210000306367874 -0.38100001215934753 0.8468000292778015 -0.37130001187324524
          -0.11739999800920486 0.9348999857902527 -0.33480000495910645 -0.18850000202655792 0.8596000075340271 -0.4749000072479248
          -0.10719999670982361 -0.2451999932527542 -0.9635000228881836 -0.06019999831914902 -0.24560000002384186 -0.9674999713897705
          0.10040000081062317 -0.35569998621940613 -0.9291999936103821 -0.7434999942779541 0.18549999594688416 -0.6424000263214111
          -0.8098000288009644 0.1670999974012375 -0.5623999834060669 -0.8666999936103821 0.16300000250339508 -0.4713999927043915
          -0.13750000298023224 -0.925599992275238 0.35260000824928284 -0.17900000512599945 -0.9733999967575073 0.14329999685287476
          0.06080000102519989 -0.8870999813079834 0.4575999975204468 0.4609000086784363 -0.8662999868392944 -0.19259999692440033
          0.49549999833106995 -0.8646000027656555 -0.08320000022649765 0.4846000075340271 -0.8317999839782715 0.27079999446868896
          -0.9902999997138977 -0.12430000305175781 -0.06199999898672104 -0.9991000294685364 -0.03530000150203705 -0.021700000390410423
          -0.9998999834060669 -0.009600000455975533 0.012799999676644802 -0.6922000050544739 -0.45739999413490295 -0.5583000183105469
          -0.786899983882904 -0.4505999982357025 -0.42160001397132874 -0.8034999966621399 -0.36820000410079956 -0.46779999136924744
          0.8970999717712402 0.2639000117778778 -0.35440000891685486 0.8744000196456909 0.39419999718666077 -0.2831000089645386
          0.911899983882904 0.3425999879837036 -0.22599999606609344 0.7466999888420105 -0.2248000055551529 0.6259999871253967
          0.9319000244140625 -0.23649999499320984 0.27489998936653137 0.6944000124931335 -0.07680000364780426 0.715499997138977
          0.534600019454956 0.1445000022649765 -0.8327000141143799 0.5295000076293945 0.18119999766349792 -0.8287000060081482
          0.3833000063896179 0.15299999713897705 -0.9108999967575073 0.8285999894142151 0.5228999853134155 -0.20010000467300415
          0.8052999973297119 0.5722000002861023 -0.15489999949932098 0.8174999952316284 0.5525000095367432 -0.1624000072479248
          -0.7396000027656555 -0.05429999902844429 0.6708999872207642 -0.8079000115394592 0.03680000081658363 0.5881999731063843
          -0.5210000276565552 0.10119999945163727 0.847599983215332 0.8930000066757202 -0.29899999499320984 0.33629998564720154
          0.765500009059906 -0.542900025844574 0.3452000021934509 0.7294999957084656 -0.24719999730587006 0.6377000212669373
          0.25380000472068787 -0.6230999827384949 -0.739799976348877 0.017799999564886093 -0.7110999822616577 -0.7028999924659729
          0.1256999969482422 -0.708899974822998 -0.694100022315979 0.652999997138977 -0.36910000443458557 -0.661300003528595
          0.5138999819755554 -0.5024999976158142 -0.6952999830245972 0.5063999891281128 -0.45410001277923584 -0.7329999804496765
          -0.42660000920295715 0.0949999988079071 -0.899399995803833 -0.5914999842643738 0.16830000281333923 -0.7886000275611877
          -0.3684000074863434 0.20010000467300415 -0.9078999757766724 -0.20469999313354492 0.5748000144958496 -0.7922999858856201
          -0.22300000488758087 0.6836000084877014 -0.6948999762535095 -0.05510000139474869 0.5879999995231628 -0.8069999814033508
          0.04179999977350235 0.9535999894142151 0.29809999465942383 -0.09059999883174896 0.9363999962806702 0.33889999985694885
          0.06549999862909317 0.8817999958992004 0.46709999442100525 -0.13230000436306 0.5787000060081482 0.8047000169754028
          -0.0868000015616417 0.3418000042438507 0.9358000159263611 0.0723000019788742 0.5034999847412109 0.8610000014305115
          -0.1981000006198883 -0.48829999566078186 0.8499000072479248 -0.18240000307559967 -0.41690000891685486 0.890500009059906
          -0.40139999985694885 -0.313400000333786 0.8605999946594238 0.8248000144958496 -0.1356000006198883 0.5489000082015991
          0.7615000009536743 -0.3483000099658966 0.5465999841690063 0.6887000203132629 -0.1103999987244606 0.7166000008583069
          -0.9624999761581421 0.18950000405311584 0.1941000074148178 -0.8738999962806702 0.40470001101493835 0.2694000005722046
          -0.8804000020027161 0.08330000191926956 0.4668999910354614 -0.9329000115394592 -0.251800000667572 0.25769999623298645
          -0.970300018787384 -0.09040000289678574 0.22450000047683716 -0.9394999742507935 -0.17100000381469727 0.29679998755455017
          0.7387999892234802 -0.6723999977111816 -0.04500000178813934 0.9136000275611877 -0.3873000144958496 0.12399999797344208
          0.7088000178337097 -0.5414000153541565 0.4523000121116638 0.5180000066757202 -0.41530001163482666 -0.7477999925613403
          0.4781999886035919 -0.4643999934196472 -0.7454000115394592 0.6473000049591064 -0.3783999979496002 -0.6617000102996826
          -0.2117999941110611 -0.001500000013038516 0.9772999882698059 -0.48339998722076416 0.01510000042617321 0.8752999901771545
          -0.3370000123977661 -0.06870000064373016 0.9390000104904175 0.14069999754428864 0.17949999868869781 0.9735999703407288
          -0.16859999299049377 -0.18070000410079956 -0.968999981880188 -0.2013999968767166 -0.2240000069141388 -0.953499972820282
          -0.27469998598098755 -0.17489999532699585 -0.9455000162124634 -0.664900004863739 -0.4004000127315521 -0.6305000185966492
          -0.7249000072479248 -0.24940000474452972 -0.6420999765396118 -0.5774000287055969 -0.3783999979496002 -0.7235000133514404
          0.8253999948501587 0.35510000586509705 0.4388999938964844 0.9106000065803528 0.3416999876499176 0.23260000348091125
          0.7803999781608582 0.2718000113964081 0.5630999803543091 0.9545000195503235 0.29760000109672546 -0.019300000742077827
          0.8996000289916992 0.2556999921798706 0.3540000021457672 0.9789000153541565 0.18400000035762787 0.08900000154972076
          0.59170001745224 0.5286999940872192 -0.6086000204086304 0.6830000281333923 0.4417000114917755 -0.5817000269889832
          0.6388000249862671 0.44929999113082886 -0.6244999766349792 -0.038600001484155655 0.6933000087738037 -0.7196000218391418
          -0.20880000293254852 0.7634999752044678 -0.6111999750137329 0.11209999769926071 0.7396000027656555 -0.6636000275611877
          -0.4562000036239624 0.8549000024795532 0.24709999561309814 -0.3248000144958496 0.8996999859809875 0.29159998893737793
          -0.427700012922287 0.8952999711036682 0.12449999898672104 -0.499099999666214 0.8417999744415283 -0.20550000667572021
          -0.33379998803138733 0.9043999910354614 -0.2655999958515167 -0.902400016784668 0.27230000495910645 -0.33399999141693115
          -0.9739000201225281 0.1728000044822693 -0.14740000665187836 -0.8779000043869019 0.37279999256134033 -0.3003999888896942
          -0.9968000054359436 0.07490000128746033 0.026900000870227814 -0.9991000294685364 -0.011900000274181366 -0.040699999779462814
          -0.9932000041007996 0.1039000004529953 -0.05310000106692314 0.626800000667572 -0.5238999724388123 0.5767999887466431
          0.5320000052452087 -0.42730000615119934 0.7310000061988831 0.7616999745368958 0.4246000051498413 0.4894999861717224
          0.7450000047683716 0.49399998784065247 0.44830000400543213 0.6897000074386597 0.2782999873161316 0.6685000061988831
          0.13580000400543213 0.5680000185966492 0.8118000030517578 0.011699999682605267 0.711899995803833 0.7021999955177307
          0.45669999718666077 -0.8884000182151794 -0.04659999907016754 0.39989998936653137 -0.8981000185012817 0.18310000002384186
          0.37139999866485596 -0.8446999788284302 0.38530001044273376 -0.042100001126527786 -0.5677000284194946 0.8220999836921692
          0.5070000290870667 -0.7560999989509583 -0.4138000011444092 0.09730000048875809 -0.6503000259399414 -0.7534000277519226
          0.09950000047683716 -0.5134000182151794 -0.8522999882698059 0.25850000977516174 -0.5946000218391418 -0.7613000273704529
          0.816100001335144 0.10480000078678131 -0.5684000253677368 0.8788999915122986 0.13330000638961792 -0.45809999108314514
          0.8291000127792358 0.05299999937415123 -0.5565999746322632 0.6852999925613403 0.23180000483989716 -0.6904000043869019
          0.6247000098228455 0.16609999537467957 -0.7630000114440918 0.6111000180244446 0.20350000262260437 -0.7649000287055969
          0.5195000171661377 -0.28290000557899475 0.8062999844551086 0.4101000130176544 -0.34130001068115234 0.8457000255584717
          0.24719999730587006 -0.19679999351501465 0.9488000273704529 -0.5055999755859375 0.6340000033378601 0.5852000117301941
          -0.722000002861023 0.675000011920929 0.1518000066280365 -0.43869999051094055 0.8619999885559082 0.2540999948978424
          -0.8682000041007996 -0.4961000084877014 0.006899999920278788 -0.7184000015258789 -0.6136999726295471 0.32760000228881836
          -0.8364999890327454 -0.5054000020027161 0.21150000393390656 -0.6872000098228455 -0.31459999084472656 -0.6547999978065491
          -0.7627999782562256 -0.38850000500679016 -0.5170000195503235 -0.9398999810218811 -0.3125 0.13779999315738678
          -0.8411999940872192 -0.10639999806880951 0.5302000045776367 -0.6888999938964844 -0.06260000169277191 0.722100019454956
          0.8730000257492065 -0.25859999656677246 0.41339999437332153 -0.8671000003814697 -0.40400001406669617 0.2913999855518341
          -0.8751999735832214 -0.390500009059906 0.2854999899864197 -0.6304000020027161 -0.6033999919891357 0.48840001225471497
          0.41190001368522644 0.21969999372959137 -0.8844000101089478 0.359499990940094 0.16439999639987946 -0.9186000227928162
          0.2799000144004822 0.22429999709129333 -0.9334999918937683 -0.25949999690055847 -0.06599999964237213 -0.9635000228881836
          -0.24779999256134033 -0.00139999995008111 -0.9688000082969666 -0.0502999983727932 -0.07450000196695328 -0.9958999752998352
          0.9146999716758728 0.29249998927116394 -0.27880001068115234 0.9531999826431274 0.17030000686645508 -0.24979999661445618
          0.6347000002861023 -0.3684999942779541 -0.6791999936103821 0.6518999934196472 -0.3255999982357025 -0.6848000288009644
          0.667900025844574 -0.303600013256073 -0.6794999837875366 -0.7986999750137329 -0.1039000004529953 0.5927000045776367
          -0.7214000225067139 0.0340999998152256 0.6916000247001648 -0.8837000131607056 0.039799999445676804 0.46630001068115234
          -0.699999988079071 0.3330000042915344 0.6316999793052673 0.4864000082015991 0.838100016117096 -0.24690000712871552
          0.5120000243186951 0.8529999852180481 -0.10140000283718109 0.6550999879837036 0.7389000058174133 -0.15760000050067902
          0.6032999753952026 0.7523000240325928 -0.26460000872612 0.6826000213623047 0.6895999908447266 -0.241799995303154
          0.5293999910354614 -0.8479999899864197 0.02370000071823597 -0.367000013589859 -0.9283000230789185 -0.059700001031160355
          0.3125 -0.9491999745368958 -0.0357000008225441 0.32440000772476196 0.08869999647140503 0.9417999982833862
          0.31850001215934753 0.0729999989271164 0.9451000094413757 0.35040000081062317 0.18930000066757202 0.9172999858856201
          -0.7789000272750854 0.40560001134872437 -0.47839999198913574 -0.49140000343322754 0.49160000681877136 -0.7189000248908997
          -0.44780001044273376 0.6014000177383423 -0.6617000102996826 -0.32269999384880066 0.5672000050544739 -0.7577000260353088
          -0.9761000275611877 -0.06809999793767929 0.20640000700950623 -0.9171000123023987 -0.12600000202655792 0.3783000111579895
          -0.9470000267028809 -0.03929999843239784 0.31869998574256897 -0.9937999844551086 0.010400000028312206 0.1103999987244606
          0.6241999864578247 0.10599999874830246 0.7739999890327454 0.7132999897003174 0.2093999981880188 0.6687999963760376
          0.579200029373169 0.03280000016093254 0.8145999908447266 0.37279999256134033 0.009999999776482582 0.9279000163078308
          0.5372999906539917 -0.11010000109672546 0.8361999988555908 0.4921000003814697 0.18039999902248383 0.8515999913215637
          -0.713699996471405 -0.5842999815940857 0.3862999975681305 0.07349999994039536 -0.8131999969482422 0.5773000121116638
          0.19339999556541443 -0.718999981880188 0.6675999760627747 0.25119999051094055 -0.57669997215271 0.777400016784668
          -0.5716999769210815 -0.6179999709129333 -0.5396999716758728 -0.44190001487731934 -0.6876000165939331 -0.576200008392334
          -0.6057000160217285 -0.6342999935150146 -0.4803999960422516 -0.026499999687075615 -0.6593000292778015 -0.7515000104904175
          -0.051899999380111694 -0.7501000165939331 -0.6593000292778015 -0.24570000171661377 -0.699400007724762 -0.6711999773979187
          0.18150000274181366 0.9804999828338623 -0.07490000128746033 0.1031000018119812 0.9944999814033508 0.019899999722838402
          0.2606000006198883 0.9653000235557556 0.014800000004470348 -0.07479999959468842 0.9760000109672546 0.20469999313354492
          -0.24400000274181366 0.9473000168800354 0.2078000009059906 -0.2062000036239624 0.9380000233650208 0.2786000072956085
          0.9940999746322632 -0.006599999964237213 0.10809999704360962 0.7681999802589417 -0.1274999976158142 -0.6273000240325928
          0.8367999792098999 -0.5403000116348267 -0.08919999748468399 0.4165000021457672 0.7454000115394592 0.5203999876976013
          0.6772000193595886 0.6772000193595886 -0.28780001401901245 0.8101000189781189 0.4738999903202057 0.3450999855995178
          -0.7777000069618225 -0.013299999758601189 -0.6284999847412109 -0.8662999868392944 -0.08500000089406967 -0.49230000376701355
          -0.8808000087738037 -0.05849999934434891 -0.4699000120162964 -0.949999988079071 -0.26330000162124634 -0.1678999960422516
          -0.9746000170707703 -0.1881999969482422 -0.12150000035762787 0.49050000309944153 -0.8550999760627747 0.16779999434947968
          0.3188999891281128 -0.5764999985694885 0.7523000240325928 0.29019999504089355 -0.438400000333786 0.850600004196167
          0.33059999346733093 -0.4016000032424927 0.8540999889373779 0.5078999996185303 0.09350000321865082 0.8562999963760376
          0.5515999794006348 0.08990000188350677 0.8292999863624573 0.3357999920845032 0.10999999940395355 0.9355000257492065
          0.5406000018119812 0.07209999859333038 0.8381999731063843 0.8057000041007996 -0.08980000019073486 -0.5855000019073486
          0.8561000227928162 0.08030000329017639 -0.5105000138282776 0.7793999910354614 0.0406000018119812 -0.6251999735832214
          0.6661999821662903 -0.26460000872612 -0.6973000168800354 0.7537000179290771 -0.11309999972581863 -0.6474999785423279
          0.7724999785423279 -0.1850000023841858 -0.6075000166893005 0.47699999809265137 -0.11720000207424164 0.8711000084877014
          0.20280000567436218 -0.163100004196167 0.965499997138977 -0.14900000393390656 0.0843999981880188 0.9851999878883362
          -0.02199999988079071 -0.066600002348423 0.9975000023841858 -0.8898000121116638 -0.2515000104904175 -0.38089999556541443
          -0.9074000120162964 -0.2939000129699707 -0.3003999888896942 -0.9641000032424927 -0.21250000596046448 -0.15950000286102295
          -0.3057999908924103 0.03590000048279762 0.9513999819755554 -0.427700012922287 0.18250000476837158 0.8852999806404114
          -0.6870999932289124 0.3953000009059906 0.6096000075340271 0.9182999730110168 0.2567000091075897 0.30149999260902405
          0.941100001335144 0.3089999854564667 0.13760000467300415 0.41260001063346863 0.04520000144839287 0.9097999930381775
          0.3935999870300293 0.1843000054359436 0.900600016117096 0.4032999873161316 0.13220000267028809 0.9054999947547913
          0.5073999762535095 -0.7484999895095825 -0.4269999861717224 0.445499986410141 -0.6110000014305115 -0.6543999910354614
          0.5856999754905701 -0.3953999876976013 -0.7074999809265137 0.2143000066280365 -0.9329000115394592 -0.28940001130104065
          0.14920000731945038 -0.7630000114440918 -0.6288999915122986 0.314300000667572 -0.7906000018119812 -0.525600016117096
          -0.5665000081062317 -0.7351999878883362 -0.3723999857902527 -0.44519999623298645 -0.695900022983551 -0.5634999871253967
          -0.36899998784065247 -0.8817999958992004 -0.2935999929904938 0.23759999871253967 0.947700023651123 0.21289999783039093
          0.2451000064611435 0.9089000225067139 0.33739998936653137 0.4390000104904175 0.8711000084877014 0.22040000557899475
          0.5616999864578247 0.5360999703407288 0.6302000284194946 0.33160001039505005 0.6442000269889832 0.6891999840736389
          0.4668000042438507 0.4902999997138977 0.7360000014305115 0.14249999821186066 0.323199987411499 -0.9355000257492065
          0.1632000058889389 0.44290000200271606 -0.881600022315979 0.3407000005245209 0.3321000039577484 -0.8795999884605408
          0.5055000185966492 0.5532000064849854 -0.6621000170707703 0.3635999858379364 0.645799994468689 -0.6712999939918518
          -0.1678999960422516 0.5929999947547913 0.7875000238418579 -0.04969999939203262 0.9542999863624573 0.2946999967098236
          -0.0035000001080334187 -0.0860000029206276 0.9962999820709229 -0.890500009059906 0.44699999690055847 0.08510000258684158
          -0.835099995136261 0.5468999743461609 0.05849999934434891 -0.5892999768257141 0.8037999868392944 0.08079999685287476
          -0.48579999804496765 0.8738999962806702 -0.01889999955892563 -0.5954999923706055 0.8016999959945679 -0.052000001072883606
          0.8973000049591064 0.39719998836517334 -0.19259999692440033 0.6349999904632568 0.2298000007867813 -0.737500011920929
          0.7930999994277954 -0.2953000068664551 -0.532800018787384 0.9067000150680542 -0.19859999418258667 -0.3720000088214874
          0.9702000021934509 -0.20819999277591705 -0.12389999628067017 0.9987999796867371 0.046300001442432404 -0.014999999664723873
          0.8755000233650208 0.11580000072717667 0.4690999984741211 0.953499972820282 -0.03150000050663948 0.299699991941452
          -0.4537000060081482 -0.6322000026702881 -0.628000020980835 -0.4120999872684479 -0.5512999892234802 -0.7253999710083008
          -0.5019000172615051 -0.40400001406669617 -0.7648000121116638 -0.3765999972820282 -0.4575999975204468 -0.8054999709129333
          0.39809998869895935 0.6381000280380249 -0.6590999960899353 0.33880001306533813 0.9205999970436096 -0.1940000057220459
          0.3790999948978424 0.9240000247955322 -0.051100000739097595 0.8565000295639038 -0.43869999051094055 0.2718999981880188
          -0.5770000219345093 0.5091000199317932 0.6385999917984009 -0.7681000232696533 -0.048900000751018524 0.6384000182151794
          -0.9506999850273132 0.17080000042915344 0.258899986743927 0.843500018119812 0.4611999988555908 -0.2750999927520752
          0.788100004196167 0.5918999910354614 -0.1687999963760376 0.8485999703407288 0.5184999704360962 -0.10530000180006027
          0.7099000215530396 0.5116999745368958 -0.4839000105857849 -0.5375999808311462 -0.3019999861717224 0.7872999906539917
          -0.0502999983727932 -0.7332000136375427 0.6782000064849854 0.2694999873638153 -0.20839999616146088 0.9401999711990356
          0.35600000619888306 -0.3012999892234802 0.8845999836921692 -0.8399999737739563 -0.28610000014305115 -0.4609000086784363
          -0.8165000081062317 -0.3003000020980835 -0.49309998750686646 -0.8823999762535095 -0.3853999972343445 -0.27000001072883606
          0.33009999990463257 0.30809998512268066 0.892300009727478 -0.42640000581741333 -0.00279999990016222 0.9045000076293945
          0.007499999832361937 -0.2732999920845032 0.961899995803833 -0.22020000219345093 -0.2639000117778778 0.9391000270843506
          0.11900000274181366 -0.08110000193119049 0.9896000027656555 0.29510000348091125 -0.12860000133514404 0.9467999935150146
          0.44209998846054077 -0.1436000019311905 0.8853999972343445 -0.19200000166893005 0.8626000285148621 0.46799999475479126
          -0.15479999780654907 0.7565000057220459 0.6355000138282776 -0.680899977684021 0.5138000249862671 0.5218999981880188
          -0.5515000224113464 0.711899995803833 0.43470001220703125 -0.7265999913215637 0.603600025177002 0.32839998602867126
          -0.574999988079071 -0.27959999442100525 -0.7688999772071838 -0.7815999984741211 -0.18080000579357147 -0.597000002861023
          -0.6717000007629395 -0.14329999685287476 -0.7268000245094299 -0.4814999997615814 0.045499999076128006 -0.8752999901771545
          -0.6960999965667725 0.10980000346899033 -0.7095000147819519 -0.6517000198364258 -0.008799999952316284 -0.758400022983551
          0.7322999835014343 0.07029999792575836 -0.677299976348877 0.7134000062942505 -0.1906999945640564 -0.6743999719619751
          0.6570000052452087 -0.00570000009611249 -0.7537999749183655 0.8325999975204468 0.1006999984383583 -0.5446000099182129
          0.7806000113487244 0.10130000114440918 -0.6168000102043152 0.13779999315738678 -0.8004999756813049 0.583299994468689
          0.2363000065088272 -0.8565000295639038 0.45890000462532043 0.0008999999845400453 -0.6843000054359436 0.729200005531311
          0.24050000309944153 -0.27619999647140503 0.9304999709129333 0.14749999344348907 -0.289900004863739 0.9455999732017517
          0.3140999972820282 -0.1429000049829483 0.9386000037193298 -0.6934999823570251 0.6033999919891357 -0.3937000036239624
          -0.7396000027656555 0.5063999891281128 -0.44339999556541443 -0.8420000076293945 0.4677000045776367 -0.2687000036239624
          -0.6362000107765198 0.7042999863624573 -0.3149999976158142 -0.698199987411499 0.694599986076355 -0.17319999635219574
          -0.5835999846458435 0.7681999802589417 -0.2632000148296356 -0.9794999957084656 0.1923000067472458 0.05939999967813492
          -0.9975000023841858 0.07050000131130219 -0.00039999998989515007 -0.9789000153541565 0.19529999792575836 0.05990000069141388
          -0.906499981880188 0.4058000147342682 0.11680000275373459 0.3246000111103058 -0.6559000015258789 -0.6815000176429749
          0.39329999685287476 -0.5742999911308289 -0.7179999947547913 0.4442000091075897 -0.5620999932289124 -0.6976000070571899
          0.15299999713897705 -0.4715999960899353 -0.868399977684021 -0.093299999833107 -0.36039999127388 -0.9280999898910522
          -0.993399977684021 0.002899999963119626 0.11509999632835388 -0.9781000018119812 0.05299999937415123 0.2013999968767166
          -0.9508000016212463 0.04500000178813934 0.3066999912261963 -0.907800018787384 -0.0689999982714653 0.41370001435279846
          0.9223999977111816 0.38589999079704285 0.014800000004470348 0.8589000105857849 0.4885999858379364 0.15369999408721924
          0.9142000079154968 0.21660000085830688 0.3425000011920929 0.8179000020027161 0.5593000054359436 -0.1348000019788742
          -0.07739999890327454 0.5016999840736389 -0.8615999817848206 -0.1889999955892563 0.11760000139474869 -0.9749000072479248
          0.9779999852180481 -0.06920000165700912 -0.19689999520778656 0.8129000067710876 0.040300000458955765 -0.5809999704360962
          0.9247000217437744 0.05939999967813492 -0.37599998712539673 0.8388000130653381 -0.06849999725818634 -0.5400000214576721
          0.7422999739646912 0.04780000075697899 0.66839998960495 0.803600013256073 0.15860000252723694 0.5737000107765198
          -0.35179999470710754 -0.6843000054359436 0.6388000249862671 0.10899999737739563 -0.6509000062942505 0.7512999773025513
          -0.12790000438690186 -0.6919000148773193 0.7106000185012817 0.04129999876022339 -0.8302000164985657 0.5559999942779541
          0.412200003862381 -0.569599986076355 0.7110999822616577 0.4602999985218048 -0.7562000155448914 0.4650000035762787
          0.5436999797821045 -0.7760999798774719 0.31929999589920044 0.30399999022483826 -0.7008000016212463 0.6453999876976013
          0.574999988079071 -0.5206999778747559 0.6310999989509583 -0.8783000111579895 -0.36559998989105225 -0.30809998512268066
          -0.8395000100135803 -0.4372999966144562 -0.32260000705718994 -0.9236999750137329 -0.3188999891281128 -0.21220000088214874
          0.12070000171661377 -0.5080000162124634 -0.8529000282287598 0.20919999480247498 -0.49790000915527344 -0.84170001745224
          0.451200008392334 -0.6021000146865845 -0.6588000059127808 0.36570000648498535 -0.49880000948905945 -0.7857999801635742
          0.33009999990463257 -0.15520000457763672 0.9311000108718872 0.38999998569488525 -0.19020000100135803 0.9009000062942505
          0.0551999993622303 -0.06340000033378601 0.9965000152587891 0.08730000257492065 0.030899999663233757 0.9957000017166138
          0.27230000495910645 0.8025000095367432 0.531000018119812 0.48579999804496765 0.6815999746322632 0.5472000241279602
          0.47450000047683716 0.7997999787330627 0.3677999973297119 0.7135000228881836 0.007000000216066837 0.7006000280380249
          0.7958999872207642 0.04340000078082085 0.6039000153541565 0.803600013256073 -0.10480000078678131 0.5859000086784363
          0.3481000065803528 0.11349999904632568 0.9305999875068665 0.32190001010894775 0.09269999712705612 0.9422000050544739
          0.38119998574256897 0.13779999315738678 0.9142000079154968 -0.019899999722838402 0.1234000027179718 0.9922000169754028
          0.30809998512268066 0.16099999845027924 0.9376000165939331 0.039400000125169754 -0.9854000210762024 0.16580000519752502
          -0.03790000081062317 -0.9977999925613403 -0.05389999970793724 -0.21699999272823334 -0.7666000127792358 -0.6043999791145325
          -0.10909999907016754 -0.9391000270843506 -0.32580000162124634 0.15950000286102295 0.9441999793052673 -0.2881999909877777
          0.09189999848604202 0.9259999990463257 -0.366100013256073 0.4032000005245209 0.8555999994277954 -0.3246999979019165
          0.16519999504089355 -0.6686999797821045 0.7249000072479248 0.27480000257492065 -0.4489000141620636 0.8503000140190125
          0.5521000027656555 -0.43220001459121704 0.7129999995231628 0.32899999618530273 -0.23360000550746918 0.9150000214576721
          0.29510000348091125 -0.20029999315738678 0.9341999888420105 0.12200000137090683 -0.11550000309944153 0.98580002784729
          -0.14020000398159027 0.1712999939918518 0.9751999974250793 0.46810001134872437 -0.41440001130104065 0.7804999947547913
          0.3968000113964081 -0.5407000184059143 0.7418000102043152 0.35569998621940613 -0.47429999709129333 0.8052999973297119