<?xml version="1.0"?>
<VTKFile type="PolyData" version="0.1" byte_order="LittleEndian" header_type="UInt32" compressor="vtkZLibDataCompressor">
  <PolyData>
    <FieldData>
      <Array type="String" Name="MaterialNames" NumberOfTuples="1" format="ascii">
        109 97 116 101 114 105 97 108 95 48 0
      </Array>
      <Array type="String" Name="MaterialLibraries" NumberOfTuples="1" format="ascii">
        109 97 116 101 114 105 97 108 46 109 116 108 0
      </Array>
    </FieldData>
    <Piece NumberOfPoints="1200" NumberOfVerts="0" NumberOfLines="0" NumberOfStrips="0" NumberOfPolys="2326">
      <PointData Normals="Normals">
        <DataArray type="Float32" Name="Normals" NumberOfComponents="3" format="ascii" RangeMin="0.9999252457060259" RangeMax="1.0000698797454153">
          0.5116999745368958 0.8575999736785889 -0.051899999380111694 0.3571000099182129 0.9161999821662903 0.18199999630451202
          0.551800012588501 0.7476000189781189 -0.36970001459121704 0.6872000098228455 0.5752000212669373 -0.44369998574256897
          0.6718999743461609 0.3240000009536743 -0.6660000085830688 0.007899999618530273 0.9501000046730042 0.31189998984336853
          0.1793999969959259 0.7412999868392944 -0.6467999815940857 0.0017000000225380063 0.8809000253677368 -0.4733000099658966
          0.26260000467300415 0.5867999792098999 -0.765999972820282 -0.2386000007390976 0.9210000038146973 -0.30799999833106995
          0.2378000020980835 0.03009999915957451 -0.97079998254776 0.4099999964237213 0.310699999332428 -0.8575000166893005
          0.38749998807907104 0.544700026512146 -0.7437000274658203 0.32249999046325684 0.5681999921798706 -0.757099986076355
          -0.18320000171661377 0.9750000238418579 0.12559999525547028 -0.2547000050544739 0.7493000030517578 0.611299991607666
          -0.44029998779296875 0.7856000065803528 0.43479999899864197 0.46129998564720154 -0.18250000476837158 -0.8683000206947327
          0.7328000068664551 -0.2888999879360199 -0.616100013256073 0.8719000220298767 -0.06750000268220901 -0.48500001430511475
          -0.18950000405311584 0.8238999843597412 0.5340999960899353 0.7914999723434448 -0.3837999999523163 -0.475600004196167
          0.7738000154495239 -0.4413999915122986 -0.4542999863624573 0.4487000107765198 0.20919999480247498 -0.8689000010490417
          0.8648999929428101 0.2011999934911728 -0.45989999175071716 0.2524000108242035 -0.18649999797344208 -0.9495000243186951
          -0.10649999976158142 -0.10159999877214432 -0.9890999794006348 0.6385999917984009 -0.5870000123977661 -0.4975999891757965
          0.3409999907016754 0.7455000281333923 -0.5726000070571899 0.1671999990940094 0.9822999835014343 -0.08420000225305557
          0.4893999993801117 0.8165000081062317 -0.30630001425743103 -0.2815999984741211 0.9585000276565552 -0.04490000009536743
          -0.5194000005722046 0.8496000170707703 0.09210000187158585 0.2775999903678894 0.39739999175071716 -0.8745999932289124
          0.39410001039505005 0.8485999703407288 -0.3529999852180481 0.44940000772476196 0.7229999899864197 -0.5246999859809875
          0.4189000129699707 0.8529999852180481 -0.31130000948905945 -0.6320000290870667 0.7627000212669373 0.1370999962091446
          0.35910001397132874 0.4814000129699707 -0.7996000051498413 0.6087999939918518 0.717199981212616 -0.3391999900341034
          0.7261000275611877 0.5174999833106995 -0.4528000056743622 0.2321999967098236 0.23690000176429749 -0.9434000253677368
          0.4481000006198883 0.7064999938011169 -0.5476999878883362 0.01860000006854534 -0.09950000047683716 -0.9948999881744385
          -0.05180000141263008 -0.3917999863624573 -0.9186000227928162 0.33070001006126404 -0.47530001401901245 -0.8152999877929688
          -0.2906999886035919 0.911899983882904 0.2897000014781952 -0.10440000146627426 0.880299985408783 0.462799996137619
          -0.07959999889135361 -0.16089999675750732 -0.9837999939918518 -0.2150000035762787 -0.46959999203681946 -0.8562999963760376
          -0.3781000077724457 -0.7049999833106995 -0.6000999808311462 -0.07559999823570251 -0.7713000178337097 -0.6319000124931335
          0.45890000462532043 -0.64410001039505 -0.6119999885559082 0.7419999837875366 -0.4706000089645386 -0.477400004863739
          0.7551000118255615 0.04050000011920929 -0.6543999910354614 -0.49720001220703125 -0.35440000891685486 -0.7919999957084656
          -0.3984000086784363 -0.6015999913215637 -0.692300021648407 -0.4092000126838684 -0.7578999996185303 -0.5080999732017517
          0.6320000290870667 -0.5618000030517578 -0.5336999893188477 0.722100019454956 -0.5105999708175659 -0.4666999876499176
          0.6255999803543091 -0.5537999868392944 -0.5496000051498413 0.11940000206232071 -0.3725000023841858 -0.9203000068664551
          0.5853999853134155 -0.42660000920295715 -0.6894000172615051 -0.5350000262260437 -0.3582000136375427 -0.7652000188827515
          0.6517999768257141 -0.5202999711036682 -0.551800012588501 0.6808000206947327 -0.38350000977516174 -0.6241000294685364
          0.7588000297546387 -0.304500013589859 -0.5758000016212463 -0.06419999897480011 -0.7860000133514404 -0.6148999929428101
          0.7540000081062317 -0.10639999806880951 -0.6481999754905701 0.842199981212616 -0.039400000125169754 -0.5376999974250793
          0.11640000343322754 0.9478999972343445 0.29670000076293945 0.38580000400543213 0.914900004863739 0.11860000342130661
          -0.25200000405311584 0.9495999813079834 0.18619999289512634 -0.41179999709129333 0.8812999725341797 0.23170000314712524
          0.36329999566078186 0.9316999912261963 0.0015999999595806003 0.5087000131607056 0.8537999987602234 -0.11089999973773956
          0.32510000467300415 0.9423999786376953 0.07890000194311142 -0.5551000237464905 0.8115000128746033 0.18250000476837158
          -0.6377999782562256 0.751800000667572 0.1671999990940094 0.6510000228881836 0.758899986743927 0.015599999576807022
          0.8137999773025513 0.569599986076355 -0.11490000039339066 -0.5067999958992004 0.7996000051498413 0.322299987077713
          -0.359499990940094 0.6800000071525574 0.6391000151634216 -0.5131000280380249 0.6626999974250793 0.5454999804496765
          0.8550999760627747 0.34619998931884766 -0.38600000739097595 -0.3833000063896179 -0.8208000063896179 -0.4235999882221222
          0.028599999845027924 -0.8675000071525574 -0.4966999888420105 0.4235999882221222 -0.6923999786376953 -0.5841000080108643
          -0.2003999948501587 0.673799991607666 0.7111999988555908 0.7513999938964844 0.1738000065088272 -0.6365000009536743
          0.6754000186920166 0.43479999899864197 -0.5956000089645386 0.5982000231742859 0.11680000275373459 -0.7928000092506409
          -0.7383999824523926 -0.42660000920295715 -0.5223000049591064 -0.4700999855995178 -0.8137999773025513 -0.3416999876499176
          0.605400025844574 -0.6215000152587891 -0.49720001220703125 0.7623000144958496 -0.5239999890327454 -0.3799000084400177
          0.7357000112533569 -0.1662999987602234 -0.656499981880188 0.5121999979019165 -0.2741999924182892 -0.8138999938964844
          -0.6779999732971191 -0.44670000672340393 -0.5837000012397766 -0.8763999938964844 -0.4260999858379364 -0.22429999709129333
          0.7538999915122986 -0.4934000074863434 -0.43369999527931213 0.274399995803833 -0.6539000272750854 -0.7050999999046326
          -0.09350000321865082 -0.9848999977111816 -0.14560000598430634 -0.5648000240325928 -0.7960000038146973 -0.2176000028848648
          0.8195000290870667 -0.3666999936103821 -0.44040000438690186 0.9174000024795532 -0.11729999631643295 -0.38040000200271606
          0.9192000031471252 0.07649999856948853 -0.3862000107765198 0.9595999717712402 0.04349999874830246 -0.27790001034736633
          0.9358999729156494 0.11069999635219574 -0.3343000113964081 0.9825000166893005 0.03269999846816063 -0.1834000051021576
          0.2304999977350235 0.9049000144004822 0.3578999936580658 -0.10239999741315842 0.9269999861717224 0.36079999804496765
          0.3001999855041504 0.9365000128746033 0.181099995970726 0.46070000529289246 0.8801000118255615 0.11429999768733978
          0.21070000529289246 0.9544000029563904 0.21130000054836273 0.0860000029206276 0.9373999834060669 0.33739998936653137
          -0.2619999945163727 0.8930000066757202 0.3659999966621399 -0.47450000047683716 0.835099995136261 0.2784000039100647
          -0.6322000026702881 0.7203999757766724 0.28519999980926514 0.6991999745368958 0.7042999863624573 0.12269999831914902
          0.5658000111579895 0.8151000142097473 0.12439999729394913 -0.704200029373169 0.6498000025749207 0.28619998693466187
          0.6560999751091003 0.7506999969482422 0.07720000296831131 0.751800000667572 0.630299985408783 -0.19380000233650208
          0.0052999998442828655 -0.8443999886512756 -0.5357000231742859 -0.305400013923645 0.583899974822998 0.7522000074386597
          -0.7163000106811523 0.5001999735832214 0.48649999499320984 -0.04969999939203262 0.5464000105857849 0.8360000252723694
          -0.1949000060558319 0.38749998807907104 0.9010000228881836 0.4999000132083893 0.3497999906539917 -0.7922999858856201
          0.5759999752044678 0.6730999946594238 -0.46380001306533813 0.6039000153541565 0.6008999943733215 -0.5236999988555908
          0.6215999722480774 0.697700023651123 -0.3560999929904938 -0.7576000094413757 -0.6225000023841858 -0.19609999656677246
          -0.3953999876976013 -0.8962000012397766 -0.2011999934911728 0.1932000070810318 -0.8974000215530396 -0.39660000801086426
          0.6589000225067139 -0.6517999768257141 -0.37540000677108765 0.6647999882698059 -0.656499981880188 -0.3564999997615814
          -0.41359999775886536 0.42399999499320984 0.8057000041007996 -0.26910001039505005 0.30219998955726624 0.9144999980926514
          0.5090000033378601 0.14839999377727509 -0.8478000164031982 0.7648000121116638 0.5084999799728394 -0.39559999108314514
          0.7749999761581421 0.05869999900460243 -0.6291999816894531 0.3449999988079071 -0.13860000669956207 -0.9283000230789185
          -0.6735000014305115 -0.7391999959945679 -0.00009999999747378752 0.7799000144004822 -0.5325000286102295 -0.32899999618530273
          0.8183000087738037 -0.4925999939441681 -0.2962999939918518 0.31470000743865967 -0.27709999680519104 -0.907800018787384
          0.2777999937534332 -0.34279999136924744 -0.8974000215530396 -0.09009999781847 -0.36649999022483826 -0.9259999990463257
          0.3000999987125397 -0.2533000111579895 -0.919700026512146 -0.7407000064849854 -0.4650000035762787 -0.48489999771118164
          -0.4047999978065491 -0.9129999876022339 0.050700001418590546 0.883400022983551 -0.3752000033855438 -0.2808000147342682
          0.9717000126838684 -0.14800000190734863 -0.1842000037431717 -0.18610000610351562 -0.31189998984336853 -0.9316999912261963
          0.31929999589920044 -0.29440000653266907 -0.9006999731063843 -0.7322999835014343 -0.1834000051021576 -0.6557999849319458
          0.9891999959945679 0.033900000154972076 -0.14239999651908875 0.9934999942779541 -0.0026000000070780516 -0.11400000005960464
          0.9728999733924866 0.16429999470710754 -0.16249999403953552 0.9527999758720398 -0.23729999363422394 -0.1890999972820282
          0.967199981212616 -0.25189998745918274 -0.032600000500679016 0.9889000058174133 -0.022199999541044235 -0.1467999964952469
          0.9926000237464905 -0.10050000250339508 -0.06800000369548798 0.8337000012397766 -0.4756999909877777 -0.28029999136924744
          0.9538000226020813 0.14869999885559082 -0.2612000107765198 0.8478999733924866 0.3352999985218048 -0.4106000065803528
          0.4106000065803528 0.830299973487854 -0.376800000667572 0.5110999941825867 0.7839000225067139 -0.35249999165534973
          0.46709999442100525 0.8476999998092651 -0.2513999938964844 0.5073000192642212 0.6804999709129333 -0.5288000106811523
          0.5972999930381775 0.6588000059127808 -0.45730000734329224 0.6714000105857849 0.5432000160217285 -0.5041000247001648
          -0.274399995803833 0.730400025844574 0.6254000067710876 -0.09309999644756317 0.8303999900817871 0.5493999719619751
          -0.4016999900341034 0.758899986743927 0.5126000046730042 -0.08320000022649765 0.8974000215530396 0.4334000051021576
          0.2630000114440918 0.9591000080108643 0.10459999740123749 0.2493000030517578 0.9675999879837036 -0.04039999842643738
          0.6381000280380249 -0.41179999709129333 -0.650600016117096 0.5281000137329102 -0.8026999831199646 -0.27709999680519104
          0.7404000163078308 -0.4876999855041504 -0.4625999927520752 0.5800999999046326 -0.2953000068664551 -0.7591000199317932
          0.8093000054359436 -0.35019999742507935 -0.4715999960899353 0.23399999737739563 -0.38530001044273376 -0.8925999999046326
          0.051600001752376556 -0.5855000019073486 -0.8090000152587891 -0.11760000139474869 -0.4343999922275543 -0.8930000066757202
          -0.09290000051259995 -0.5871999859809875 -0.804099977016449 -0.041200000792741776 -0.569100022315979 -0.8213000297546387
          0.03830000013113022 -0.732200026512146 -0.6800000071525574 0.018400000408291817 -0.6909999847412109 -0.722599983215332
          0.06430000066757202 -0.7193999886512756 -0.6916999816894531 -0.19140000641345978 -0.7541999816894531 -0.6280999779701233
          -0.5437999963760376 -0.7026000022888184 -0.45899999141693115 -0.6050999760627747 -0.7372999787330627 -0.3003999888896942
          -0.7459999918937683 -0.6510000228881836 -0.14030000567436218 -0.7095999717712402 -0.6306999921798706 -0.3140999972820282
          -0.8838000297546387 -0.4672999978065491 0.02239999920129776 0.6633999943733215 -0.48989999294281006 -0.5655999779701233
          0.4474000036716461 -0.8361999988555908 -0.31709998846054077 0.3206000030040741 -0.5509999990463257 -0.7705000042915344
          -0.05959999933838844 -0.5504000186920166 -0.8327999711036682 -0.24230000376701355 -0.7610999941825867 -0.6017000079154968
          -0.17329999804496765 -0.90420001745224 -0.3903000056743622 -0.40149998664855957 -0.885200023651123 -0.23489999771118164
          0.18279999494552612 -0.9186999797821045 -0.3499999940395355 -0.17190000414848328 -0.9218999743461609 -0.3472000062465668
          0.2678000032901764 0.9301999807357788 0.250900000333786 0.40389999747276306 0.8907999992370605 0.20829999446868896
          0.16910000145435333 0.9513000249862671 0.25769999623298645 0.052000001072883606 0.9498000144958496 0.3086000084877014
          -0.2125999927520752 0.8985999822616577 0.3837999999523163 -0.45750001072883606 0.8030999898910522 0.38179999589920044
          -0.39969998598098755 0.8068000078201294 0.4352000057697296 0.4927999973297119 0.85589998960495 0.156700000166893
          0.6585999727249146 0.7400000095367432 0.13650000095367432 -0.5608999729156494 0.7149999737739563 0.4174000024795532
          -0.6442000269889832 0.6873999834060669 0.33559998869895935 -0.7674000263214111 0.560699999332428 0.3109000027179718
          0.60589998960495 0.7817000150680542 -0.14800000190734863 0.4984000027179718 0.8669000267982483 0.007199999876320362
          0.5401999950408936 0.8331999778747559 -0.11810000240802765 0.6072999835014343 0.7878999710083008 0.10180000215768814
          0.614799976348877 0.7799999713897705 -0.11670000106096268 0.6901000142097473 0.7092000246047974 -0.14390000700950623
          -0.7317000031471252 -0.6672999858856201 -0.1386999934911728 -0.3750999867916107 -0.8931999802589417 -0.24799999594688416
          0.19699999690055847 -0.9423999786376953 -0.2703000009059906 0.7067999839782715 -0.6523000001907349 -0.27379998564720154
          -0.6797000169754028 0.328900009393692 0.6556000113487244 -0.8607000112533569 0.3294000029563904 0.3880999982357025
          -0.4291999936103821 0.2533000111579895 0.8669000267982483 0.7832000255584717 0.6215000152587891 -0.0210999995470047
          0.9164000153541565 0.37040001153945923 -0.1518000066280365 -0.2809999883174896 -0.8810999989509583 0.38040000200271606
          -0.8172000050544739 -0.5759000182151794 0.02329999953508377 -0.3903999924659729 -0.9199000000953674 0.03739999979734421
          0.03799999877810478 -0.9562000036239624 0.29019999504089355 -0.6959999799728394 -0.7178999781608582 0.016100000590085983
          0.8353999853134155 -0.45559999346733093 -0.3073999881744385 -0.8549000024795532 0.2939000129699707 0.4275999963283539
          -0.6818000078201294 0.07069999724626541 0.7281000018119812 -0.8730000257492065 -0.08709999918937683 0.47999998927116394
          -0.8769999742507935 0.13279999792575836 0.4618000090122223 0.35530000925064087 -0.06549999862909317 -0.9325000047683716
          0.8695999979972839 0.2815999984741211 -0.40549999475479126 0.22390000522136688 -0.3271999955177307 -0.9180999994277954
          -0.9661999940872192 -0.10270000249147415 -0.23639999330043793 -0.3009999990463257 -0.9355999827384949 0.1843000054359436
          0.8863999843597412 -0.39820000529289246 -0.2362000048160553 -0.9391999840736389 0.053700000047683716 0.3391999900341034
          -0.9437999725341797 0.07450000196695328 0.3221000134944916 0.4875999987125397 0.5648999810218811 -0.6657000184059143
          0.8632000088691711 0.44179999828338623 -0.2443999946117401 0.8618000149726868 0.4489000141620636 -0.23639999330043793
          -0.15600000321865082 0.2912999987602234 -0.9437999725341797 0.14030000567436218 -0.1704999953508377 -0.9753000140190125
          -0.961899995803833 -0.014700000174343586 -0.27309998869895935 0.9128999710083008 -0.2696000039577484 -0.30630001425743103
          0.98580002784729 -0.022700000554323196 -0.1665000021457672 -0.9490000009536743 0.035999998450279236 0.31310001015663147
          -0.9345999956130981 0.010200000368058681 0.3553999960422516 0.45159998536109924 0.7379000186920166 -0.5016000270843506
          0.9857000112533569 0.12120000272989273 -0.11729999631643295 -0.13269999623298645 0.8026000261306763 -0.5814999938011169
          -0.7846999764442444 0.18379999697208405 -0.5920000076293945 -0.32420000433921814 -0.10300000011920929 -0.9402999877929688
          -0.19300000369548798 -0.27379998564720154 -0.9422000050544739 -0.8158000111579895 -0.21940000355243683 -0.535099983215332
          0.9679999947547913 0.05169999971985817 -0.24560000002384186 -0.9381999969482422 0.003800000064074993 0.34619998931884766
          -0.909600019454956 -0.03759999945759773 0.41370001435279846 0.9835000038146973 -0.12240000069141388 -0.13349999487400055
          -0.7868000268936157 0.05299999937415123 -0.6150000095367432 -0.09910000115633011 -0.27059999108314514 -0.9575999975204468
          -0.8410000205039978 0.3691999912261963 -0.3955000042915344 0.15639999508857727 0.5073000192642212 -0.8475000262260437
          -0.2362000048160553 0.26409998536109924 -0.9351000189781189 -0.796500027179718 0.17679999768733978 -0.5781999826431274
          0.9344000220298767 0.10700000077486038 -0.3398999869823456 -0.8999999761581421 -0.07169999927282333 0.42989999055862427
          -0.8791999816894531 -0.10019999742507935 0.4657999873161316 0.7475000023841858 -0.48159998655319214 -0.45750001072883606
          0.9157000184059143 -0.3790000081062317 -0.13369999825954437 0.5842999815940857 -0.47350001335144043 -0.6589999794960022
          -0.4009999930858612 0.7759000062942505 -0.4869999885559082 -0.39340001344680786 0.8597999811172485 -0.3255999982357025
          -0.2904999852180481 0.8321999907493591 -0.4722000062465668 -0.7310000061988831 0.6721000075340271 -0.11800000071525574
          -0.5169000029563904 0.8539000153541565 -0.06030000001192093 -0.7168999910354614 0.6425999999046326 0.2703000009059906
          -0.8256000280380249 0.4952000081539154 0.2705000042915344 0.8472999930381775 0.2578999996185303 -0.4643999934196472
          0.708299994468689 0.4945000112056732 -0.5037999749183655 -0.8687999844551086 -0.21930000185966492 0.4438999891281128
          -0.8774999976158142 -0.22200000286102295 0.42500001192092896 0.7727000117301941 -0.5640000104904175 -0.2912999987602234
          0.6194999814033508 -0.5813999772071838 -0.527400016784668 0.7846999764442444 -0.5884000062942505 -0.1949000060558319
          0.6399999856948853 -0.5130000114440918 -0.5720999836921692 0.5317999720573425 -0.6625000238418579 -0.5274999737739563
          -0.5311999917030334 0.6741999983787537 0.5131000280380249 -0.5878000259399414 0.6710000038146973 0.45190000534057617
          -0.7037000060081482 0.559499979019165 0.43799999356269836 0.6230999827384949 0.6651999950408936 -0.4113999903202057
          0.6169999837875366 0.7491999864578247 -0.24070000648498535 -0.9355999827384949 -0.25429999828338623 0.24480000138282776
          -0.930400013923645 -0.26750001311302185 0.25040000677108765 -0.9014000296592712 -0.2272000014781952 0.3686000108718872
          -0.8830999732017517 -0.31040000915527344 0.3517000079154968 0.6592000126838684 -0.6013000011444092 -0.45159998536109924
          0.2987000048160553 -0.670199990272522 -0.6794000267982483 0.6200000047683716 -0.7275999784469604 -0.2937000095844269
          0.3783000111579895 -0.6342999935150146 -0.6741999983787537 0.1680999994277954 -0.7242000102996826 -0.6687999963760376
          -0.4745999872684479 0.8281000256538391 0.29820001125335693 -0.12639999389648438 0.8539000153541565 0.5048999786376953
          -0.31520000100135803 0.9473999738693237 -0.05510000139474869 0.3127000033855438 0.9086999893188477 0.2766000032424927
          0.5051000118255615 0.862500011920929 -0.031099999323487282 -0.9506000280380249 -0.28850001096725464 0.1145000010728836
          0.21559999883174896 -0.8252000212669373 -0.5220999717712402 0.26249998807907104 -0.7768999934196472 -0.5723000168800354
          0.4699999988079071 -0.7383000254631042 -0.4837000072002411 0.49720001220703125 -0.751800000667572 -0.43299999833106995
          0.7581999897956848 -0.4724000096321106 -0.4494999945163727 -0.8345999717712402 -0.4952000081539154 0.24140000343322754
          0.8421000242233276 -0.5044999718666077 -0.1907999962568283 -0.6852999925613403 -0.6898999810218811 0.23330000042915344
          0.7098000049591064 -0.6906999945640564 -0.13850000500679016 0.3711000084877014 -0.9277999997138977 0.038600001484155655
          -0.24809999763965607 -0.968500018119812 0.020800000056624413 -0.2784000039100647 -0.9552000164985657 0.10080000013113022
          -0.42660000920295715 -0.8747000098228455 0.22990000247955322 0.17649999260902405 -0.9829000234603882 0.051899999380111694
          -0.025100000202655792 -0.9951000213623047 0.09539999812841415 -0.28119999170303345 -0.9577000141143799 0.061799999326467514
          0.3433000147342682 0.9031999707221985 0.25760000944137573 0.23240000009536743 0.9380000233650208 0.257099986076355
          0.13050000369548798 0.9574000239372253 0.25769999623298645 -0.028300000354647636 0.9409999847412109 0.33730000257492065
          -0.24490000307559967 0.880299985408783 0.40630000829696655 0.43130001425743103 0.890500009059906 0.14499999582767487
          0.6377000212669373 0.7652999758720398 0.08789999783039093 0.2667999863624573 0.9435999989509583 0.19589999318122864
          -0.44760000705718994 0.7807000279426575 0.4361000061035156 -0.5396000146865845 0.6891000270843506 0.4837999939918518
          -0.6395999789237976 0.6366999745368958 0.43070000410079956 -0.5616999864578247 0.6556000113487244 0.5045999884605408
          0.48969998955726624 0.8693000078201294 0.06650000065565109 0.5516999959945679 0.8310999870300293 0.07079999893903732
          0.5582000017166138 0.8282999992370605 0.04740000143647194 -0.6723999977111816 0.5914999842643738 0.4449000060558319
          -0.8276000022888184 0.41920000314712524 0.3734000027179718 0.6665999889373779 0.7348999977111816 0.12460000067949295
          -0.5544999837875366 -0.824400007724762 -0.11330000311136246 0.6086000204086304 -0.7548999786376953 -0.24449999630451202
          -0.8755000233650208 0.3151000142097473 0.3662000000476837 0.7675999999046326 0.6159999966621399 0.17710000276565552
          0.8986999988555908 0.4334000051021576 0.06790000200271606 -0.7368000149726868 -0.6241000294685364 -0.26019999384880066
          -0.453000009059906 -0.8137999773025513 -0.36410000920295715 -0.44670000672340393 -0.8938999772071838 -0.03799999877810478
          0.7993999719619751 -0.5702999830245972 -0.1889999955892563 0.7296000123023987 -0.6474999785423279 -0.2199999988079071
          -0.8912000060081482 0.2784999907016754 0.3580999970436096 -0.911300003528595 0.14640000462532043 0.3849000036716461
          0.90420001745224 0.4237000048160553 0.05469999834895134 -0.9693999886512756 -0.15360000729560852 -0.19169999659061432
          -0.7613999843597412 -0.5080000162124634 -0.4027000069618225 0.920199990272522 -0.33239999413490295 -0.2069000005722046
          -0.916700005531311 0.04149999842047691 0.39750000834465027 0.9017000198364258 0.4153999984264374 0.11949999630451202
          0.9508000016212463 0.3084999918937683 0.029100000858306885 -0.9972000122070312 -0.049800001084804535 -0.05620000138878822
          0.9308000206947327 -0.10509999841451645 -0.35019999742507935 0.9503999948501587 -0.05480000004172325 -0.30630001425743103
          -0.9021000266075134 -0.04259999841451645 0.429500013589859 0.9933000206947327 0.0860000029206276 0.07729999721050262
          -0.9825999736785889 -0.041999999433755875 -0.1808999925851822 0.9218000173568726 0.13169999420642853 -0.3646000027656555
          -0.8838000297546387 -0.07989999651908875 0.4611000120639801 0.9674000144004822 -0.18469999730587006 0.17339999973773956
          -0.35740000009536743 0.30169999599456787 -0.883899986743927 -0.9585999846458435 0.07360000163316727 -0.2752000093460083
          0.8507999777793884 0.32199999690055847 -0.41519999504089355 -0.895799994468689 -0.09430000185966492 0.4343000054359436
          -0.9136999845504761 -0.08110000193119049 0.39820000529289246 0.8992000222206116 -0.37770000100135803 0.2207999974489212
          -0.9136000275611877 0.4056999981403351 0.027799999341368675 -0.9541000127792358 0.23479999601840973 -0.1860000044107437
          0.7678999900817871 0.4781999886035919 -0.4262000024318695 -0.8831999897956848 -0.15230000019073486 0.44350001215934753
          0.8515999913215637 -0.5166000127792358 0.08910000324249268 0.8385000228881836 -0.5184999704360962 0.1673000007867813
          -0.8880000114440918 0.3693999946117401 0.27379998564720154 -0.9300000071525574 0.3418000042438507 -0.1356000006198883
          0.7199000120162964 0.5913000106811523 -0.36329999566078186 0.7005000114440918 0.6567000150680542 -0.2793999910354614
          -0.8726000189781189 -0.18219999969005585 0.4530999958515167 0.8032000064849854 -0.595300018787384 0.018799999728798866
          0.7232999801635742 -0.6841999888420105 0.09350000321865082 -0.6868000030517578 0.7264999747276306 -0.022199999541044235
          -0.23989999294281006 0.9269999861717224 -0.28839999437332153 0.3059000074863434 0.9143999814987183 -0.2651999890804291
          0.1412000060081482 0.9121000170707703 -0.3849000036716461 0.5135999917984009 0.7872999906539917 -0.34130001068115234
          -0.8384000062942505 -0.2985999882221222 0.4560000002384186 0.46790000796318054 -0.8490999937057495 -0.2451999932527542
          0.33489999175071716 -0.7459999918937683 -0.5756000280380249 0.4966000020503998 -0.8565000295639038 -0.14059999585151672
          0.39169999957084656 -0.6578999757766724 -0.6431999802589417 -0.7264000177383423 -0.5117999911308289 0.4587000012397766
          0.4018999934196472 -0.8454999923706055 -0.3515999913215637 0.5030999779701233 -0.7346000075340271 -0.4553000032901764
          0.7017999887466431 -0.6959999799728394 -0.15189999341964722 -0.5831000208854675 -0.6830999851226807 0.43959999084472656
          0.5644999742507935 -0.8174999952316284 0.11420000344514847 0.26089999079704285 -0.9445000290870667 0.1996999979019165
          -0.16089999675750732 -0.9502999782562256 0.266400009393692 -0.2720000147819519 -0.919700026512146 0.28299999237060547
          -0.3555999994277954 -0.855400025844574 0.3765000104904175 -0.48410001397132874 -0.7560999989509583 0.44040000438690186
          0.1160999983549118 -0.9851999878883362 0.12620000541210175 -0.05700000002980232 -0.97079998254776 0.23309999704360962
          0.1565999984741211 0.954200029373169 0.2549000084400177 -0.0471000000834465 0.9433000087738037 0.3285999894142151
          0.6108999848365784 0.7871999740600586 0.08399999886751175 0.2150000035762787 0.9613999724388123 0.17180000245571136
          0.06669999659061432 0.9721999764442444 0.22450000047683716 -0.2176000028848648 0.919700026512146 0.32670000195503235
          -0.5437999963760376 0.6735000014305115 0.5006999969482422 -0.5817999839782715 0.6992999911308289 0.41530001163482666
          0.551800012588501 0.8278999924659729 0.10010000318288803 0.6172000169754028 0.7692000269889832 0.1655000001192093
          0.5442000031471252 0.8377000093460083 0.04610000178217888 -0.5613999962806702 0.6937999725341797 0.4510999917984009
          -0.6712999939918518 0.5745000243186951 0.4684000015258789 -0.771399974822998 0.4372999966144562 0.46230000257492065
          0.6531000137329102 0.7142999768257141 0.2513999938964844 0.7174999713897705 0.6406999826431274 0.2732999920845032
          -0.593999981880188 -0.7527999877929688 -0.28360000252723694 -0.14890000224113464 -0.9641000032424927 -0.21979999542236328
          0.4390999972820282 -0.8289999961853027 -0.3463999927043915 0.14159999787807465 -0.8776999711990356 -0.4578000009059906
          -0.8454999923706055 0.3343999981880188 0.4162999987602234 0.7603999972343445 0.5666999816894531 0.31709998846054077
          0.8335000276565552 0.47749999165534973 0.27790001034736633 -0.4918999969959259 -0.8282999992370605 -0.26809999346733093
          -0.628600001335144 -0.7192999720573425 -0.29589998722076416 0.3546999990940094 -0.8432999849319458 -0.40380001068115234
          0.704200029373169 -0.6998999714851379 -0.11919999867677689 -0.8996999859809875 0.20649999380111694 0.38449999690055847