<?xml version="1.0"?>
<VTKFile type="PolyData" version="0.1" byte_order="LittleEndian" header_type="UInt32" compressor="vtkZLibDataCompressor">
  <PolyData>
    <FieldData>
      <Array type="String" Name="MaterialNames" NumberOfTuples="1" format="ascii">
        109 97 116 101 114 105 97 108 95 48 0
      </Array>
      <Array type="String" Name="MaterialLibraries" NumberOfTuples="1" format="ascii">
        109 97 116 101 114 105 97 108 46 109 116 108 0
      </Array>
    </FieldData>
    <Piece NumberOfPoints="526" NumberOfVerts="0" NumberOfLines="0" NumberOfStrips="0" NumberOfPolys="1002">
      <PointData Normals="Normals">
        <DataArray type="Float32" Name="Normals" NumberOfComponents="3" format="ascii" RangeMin="0.9999376256779177" RangeMax="1.0000683918298656">
          -0.2766999900341034 -0.22990000247955322 0.9330000281333923 0.16009999811649323 -0.7386000156402588 0.6549000144004822
          -0.2363000065088272 -0.7152000069618225 0.6577000021934509 0.12380000203847885 -0.8443999886512756 0.5212000012397766
          -0.28519999980926514 -0.6410999894142151 0.7124999761581421 -0.41200000047683716 -0.7591999769210815 0.5038999915122986
          0.33480000495910645 -0.63919997215271 0.692300021648407 0.17499999701976776 -0.588100016117096 0.7896999716758728
          0.3109999895095825 -0.027699999511241913 0.949999988079071 -0.7177000045776367 -0.4115000069141388 0.5618000030517578
          -0.691100001335144 -0.49950000643730164 0.5224000215530396 -0.7942000031471252 -0.37709999084472656 0.476500004529953
          -0.6295999884605408 0.016699999570846558 0.7767000198364258 -0.7771000266075134 -0.2854999899864197 0.5608000159263611
          -0.14920000731945038 -0.006200000178068876 0.9887999892234802 0.08470000326633453 0.2865000069141388 0.9542999863624573
          -0.7792999744415283 -0.35179999470710754 0.5185999870300293 -0.8184999823570251 -0.337799996137619 0.46470001339912415
          0.3504999876022339 0.20409999787807465 0.9140999913215637 0.777899980545044 0.25839999318122864 -0.5727999806404114
          0.744700014591217 -0.07859999686479568 -0.6626999974250793 0.8604999780654907 0.4449999928474426 -0.24819999933242798
          0.397599995136261 -0.3571000099182129 -0.8452000021934509 0.19920000433921814 -0.2628999948501587 -0.9440000057220459
          0.5273000001907349 -0.15929999947547913 -0.8345999717712402 0.7660999894142151 0.24899999797344208 -0.5925999879837036
          -0.7908999919891357 0.2223999947309494 0.5701000094413757 -0.4731999933719635 0.42160001397132874 0.7735000252723694
          -0.7508999705314636 -0.33239999413490295 0.5706999897956848 -0.9169999957084656 -0.21320000290870667 0.3370000123977661
          -0.6211000084877014 0.04340000078082085 0.7825999855995178 -0.18729999661445618 0.2930000126361847 0.9376000165939331
          0.263700008392334 0.17980000376701355 0.947700023651123 -0.9283000230789185 -0.04340000078082085 0.3691999912261963
          -0.9532999992370605 0.18230000138282776 0.2409999966621399 0.37229999899864197 0.09799999743700027 0.9229000210762024
          0.8077999949455261 0.5299000144004822 0.2581000030040741 0.8036999702453613 0.5819000005722046 0.12409999966621399
          0.8004000186920166 0.5924999713897705 0.09130000323057175 0.13079999387264252 -0.16779999434947968 -0.9771000146865845
          0.1023000031709671 -0.2321999967098236 -0.9672999978065491 0.7213000059127808 0.6563000082969666 -0.2214999943971634
          0.3580000102519989 0.019500000402331352 -0.9334999918937683 0.5457000136375427 0.5386999845504761 -0.6417999863624573
          -0.8220000267028809 -0.17759999632835388 0.5410000085830688 -0.9473999738693237 -0.1995999962091446 0.25029999017715454
          -0.5321999788284302 -0.17749999463558197 0.8277999758720398 -0.15639999508857727 -0.05090000107884407 0.9864000082015991
          0.33340001106262207 -0.03020000085234642 0.942300021648407 -0.9914000034332275 0.11909999698400497 0.054999999701976776
          -0.8980000019073486 0.4388999938964844 0.031099999323487282 0.46160000562667847 -0.22949999570846558 0.8568999767303467
          0.42910000681877136 -0.11500000208616257 0.8959000110626221 -0.9851999878883362 -0.05460000038146973 -0.16249999403953552
          0.8086000084877014 0.5083000063896179 0.29649999737739563 0.7757999897003174 0.6305999755859375 0.019099999219179153
          0.11779999732971191 -0.23000000417232513 -0.9660000205039978 0.16259999573230743 -0.21789999306201935 -0.9623000025749207
          0.6225000023841858 0.717199981212616 -0.3133000135421753 0.492900013923645 0.7246000170707703 -0.48179998993873596
          0.5950000286102295 0.7627000212669373 -0.2535000145435333 0.34689998626708984 0.3497999906539917 -0.870199978351593
          -0.8804000020027161 -0.0066999997943639755 0.4740999937057495 -0.9818999767303467 -0.08229999989271164 0.17069999873638153
          -0.6233999729156494 -0.034699998795986176 0.7810999751091003 -0.2467000037431717 -0.03550000116229057 0.9684000015258789
          0.23639999330043793 -0.13850000500679016 0.9617000222206116 0.3977000117301941 -0.18809999525547028 0.8980000019073486
          -0.9696000218391418 -0.19760000705718994 -0.1445000022649765 0.42750000953674316 -0.273499995470047 0.8616999983787537
          -0.8528000116348267 -0.5157999992370605 -0.08190000057220459 0.4235000014305115 -0.053199999034404755 0.9043999910354614
          0.491100013256073 -0.16290000081062317 0.8557000160217285 0.5821999907493591 0.039000000804662704 0.8120999932289124
          0.7591000199317932 0.37040001153945923 0.5353999733924866 0.8090999722480774 0.4875999987125397 0.3280999958515167
          -0.0786999985575676 0.23229999840259552 -0.9693999886512756 -0.0617000013589859 0.21780000627040863 -0.9739999771118164
          0.002099999925121665 0.2547000050544739 -0.9670000076293945 0.7653999924659729 0.6434999704360962 0.003700000001117587
          0.07720000296831131 0.12330000102519989 -0.9894000291824341 0.010599999688565731 0.17589999735355377 -0.9843999743461609
          0.27639999985694885 -0.05290000140666962 -0.9595999717712402 0.1339000016450882 0.06599999964237213 -0.9887999892234802
          0.0649000033736229 -0.1818999946117401 -0.9811999797821045 -0.16380000114440918 0.28540000319480896 -0.9442999958992004
          0.35600000619888306 0.7997000217437744 -0.48339998722076416 0.4927000105381012 0.7785999774932861 -0.3885999917984009
          0.0031999999191612005 0.23280000686645508 -0.9725000262260437 0.12960000336170197 0.7099999785423279 -0.6922000050544739
          -0.947700023651123 -0.012600000016391277 0.3188000023365021 -0.8762999773025513 0.16590000689029694 0.4523000121116638
          -0.7185999751091003 0.12139999866485596 0.6847000122070312 -0.40290001034736633 0.10939999669790268 0.9086999893188477
          0.04830000177025795 -0.025200000032782555 0.9984999895095825 0.19059999287128448 -0.09570000320672989 0.9769999980926514
          -0.9330999851226807 -0.35929998755455017 -0.018400000408291817 0.4447000026702881 -0.22210000455379486 0.8676999807357788
          0.5557000041007996 -0.12950000166893005 0.8213000297546387 -0.6786999702453613 -0.7299000024795532 0.08089999854564667
          0.6240000128746033 0.005799999926239252 0.7814000248908997 -0.5479000210762024 -0.810699999332428 0.20630000531673431
          -0.42800000309944153 -0.8300999999046326 0.35740000009536743 0.5759999752044678 0.02879999950528145 0.8169000148773193
          0.47589999437332153 0.1615000069141388 0.8644999861717224 0.6814000010490417 0.15459999442100525 0.715399980545044
          0.76419997215271 0.3416999876499176 0.546999990940094 0.8098999857902527 0.5038999915122986 0.3003999888896942
          -0.061500001698732376 -0.31769999861717224 -0.9462000131607056 -0.17739999294281006 -0.41200000047683716 -0.8938000202178955
          0.08470000326633453 -0.30889999866485596 -0.9473000168800354 0.023499999195337296 -0.3573000133037567 -0.9337000250816345
          0.08030000329017639 0.03200000151991844 -0.9962999820709229 0.15330000221729279 0.09920000284910202 -0.9832000136375427
          0.05310000106692314 0.25110000371932983 -0.9664999842643738 -0.09459999948740005 0.2653000056743622 -0.9595000147819519
          0.7376000285148621 0.6736999750137329 -0.045899998396635056 -0.08910000324249268 0.24480000138282776 -0.965499997138977
          0.10989999771118164 0.1932000070810318 -0.9750000238418579 0.010599999688565731 0.49079999327659607 -0.8712000250816345
          -0.1573999971151352 0.7445999979972839 -0.6486999988555908 0.2361000031232834 0.7408999800682068 -0.6287000179290771
          0.08150000125169754 0.8845000267028809 -0.4593999981880188 0.57669997215271 0.7148000001907349 -0.39570000767707825
          -0.7131999731063843 0.25999999046325684 0.6509000062942505 -0.8148999810218811 0.2054000049829483 0.5419999957084656
          -0.5267999768257141 0.2184000015258789 0.8215000033378601 -0.22750000655651093 0.13099999725818634 0.964900016784668
          -0.04470000043511391 0.10450000315904617 0.9934999942779541 -0.8769000172615051 -0.08250000327825546 0.47360000014305115
          -0.8816999793052673 -0.44760000705718994 0.14949999749660492 0.25130000710487366 -0.1031000018119812 0.9624000191688538
          0.54339998960495 -0.058400001376867294 0.8374999761581421 -0.5205000042915344 -0.8234000205993652 0.22579999268054962
          -0.6340000033378601 -0.7372000217437744 0.23360000550746918 -0.4666000008583069 -0.7889999747276306 0.39980000257492065
          0.6359999775886536 -0.04960000142455101 0.7700999975204468 -0.6538000106811523 -0.42570000886917114 0.6255999803543091
          0.6998999714851379 0.08919999748468399 0.7087000012397766 0.7954999804496765 0.322299987077713 0.5131000280380249
          -0.6664999723434448 0.08320000022649765 -0.7408000230789185 -0.336899995803833 -0.36719998717308044 -0.8669999837875366
          0.8104000091552734 0.5293999910354614 0.25110000371932983 0.1071000024676323 -0.26429998874664307 -0.9585000276565552
          0.22439999878406525 0.0723000019788742 -0.9718000292778015 0.08760000020265579 0.2637999951839447 -0.9606000185012817
          -0.09380000084638596 0.2874000072479248 -0.9531999826431274 0.6859999895095825 0.722000002861023 -0.09000000357627869
          -0.1680999994277954 0.303600013256073 -0.9377999901771545 0.04100000113248825 0.26510000228881836 -0.9632999897003174
          0.20569999516010284 0.37779998779296875 -0.9028000235557556 0.3564999997615814 0.5619000196456909 -0.7465000152587891
          0.49480000138282776 0.7299000024795532 -0.4715000092983246 -0.6984000205993652 0.3255999982357025 0.6373000144958496
          -0.5281999707221985 0.2944999933242798 0.7964000105857849 -0.34209999442100525 0.225600004196167 0.9121999740600586
          -0.4634999930858612 0.29409998655319214 0.8357999920845032 -0.8230999708175659 -0.09369999915361404 0.5601999759674072
          -0.8665000200271606 -0.3736000061035156 0.3310999870300293 -0.7321000099182129 0.1623000055551529 0.6615999937057495
          -0.2321999967098236 0.05999999865889549 0.97079998254776 0.2345000058412552 -0.08780000358819962 0.9681000113487244
          0.4932999908924103 -0.026599999517202377 0.8694999814033508 -0.8187999725341797 -0.45649999380111694 0.3481000065803528
          -0.7360000014305115 -0.5145000219345093 0.4399999976158142 0.597100019454956 -0.06729999929666519 0.7993000149726868
          0.6543999910354614 -0.15039999783039093 0.7409999966621399 0.6699000000953674 -0.11580000072717667 0.7333999872207642
          -0.8381999731063843 0.039500001817941666 0.5439000129699707 -0.8331000208854675 0.36169999837875366 0.41839998960494995
          -0.9708999991416931 0.23909999430179596 0.011599999852478504 -0.9302999973297119 0.20589999854564667 -0.3034999966621399
          -0.8212000131607056 -0.03610000014305115 0.5694000124931335 0.7523000240325928 0.13670000433921814 0.6445000171661377
          -0.657800018787384 0.314300000667572 -0.684499979019165 -0.739300012588501 0.41370001435279846 -0.5313000082969666
          -0.8348000049591064 0.120899997651577 -0.5371999740600586 0.8134999871253967 0.3431999981403351 0.46959999203681946
          -0.49790000915527344 -0.29100000858306885 -0.8169000148773193 0.8105000257492065 0.5547999739646912 0.18799999356269836
          0.022099999710917473 -0.1080000028014183 -0.9939000010490417 0.30660000443458557 0.10419999808073044 -0.9460999965667725
          0.20280000567436218 0.23070000112056732 -0.9516000151634216 -0.1039000004529953 0.2727999985218048 -0.9563999772071838
          0.6707000136375427 0.7239999771118164 -0.1615000069141388 -0.008500000461935997 0.27709999680519104 -0.9607999920845032
          0.21369999647140503 0.39089998602867126 -0.8952999711036682 0.41260001063346863 0.5543000102043152 -0.7228999733924866
          0.5254999995231628 0.7186999917030334 -0.4553999900817871 -0.6355000138282776 0.24979999661445618 0.7305999994277954
          -0.8317999839782715 0.06239999830722809 0.5515000224113464 -0.9003000259399414 -0.1468999981880188 0.4097000062465668
          -0.7035999894142151 0.07280000299215317 0.7069000005722046 -0.5878000259399414 0.08569999784231186 0.8044000267982483
          -0.3240000009536743 -0.09849999845027924 0.9409000277519226 0.09489999711513519 -0.08269999921321869 0.9919999837875366
          0.40459999442100525 -0.014700000174343586 0.9143999814987183 -0.9093000292778015 -0.1370999962091446 0.3928000032901764
          -0.9330000281333923 -0.15839999914169312 0.3231000006198883 0.633899986743927 0.028200000524520874 0.7728999853134155
          -0.7865999937057495 0.6093999743461609 -0.0997999981045723 -0.9075000286102295 0.4171000123023987 0.049400001764297485
          -0.932699978351593 0.24609999358654022 0.2637999951839447 0.7588000297546387 0.18799999356269836 0.6236000061035156
          -0.9082000255584717 -0.07940000295639038 -0.41100001335144043 0.8870999813079834 0.28940001130104065 0.359499990940094
          -0.638700008392334 -0.16339999437332153 -0.7519000172615051 0.8116000294685364 0.5795999765396118 0.07349999994039536
          -0.10300000011920929 0.04089999943971634 -0.9937999844551086 0.27399998903274536 0.15279999375343323 -0.9495000243186951
          0.34709998965263367 0.08449999988079071 -0.9340000152587891 0.1264999955892563 0.15549999475479126 -0.9797000288963318
          0.023399999365210533 0.10329999774694443 -0.9944000244140625 0.6592000126838684 0.717199981212616 -0.22609999775886536
          0.06939999759197235 0.1941000074148178 -0.9785000085830688 0.2012999951839447 0.39239999651908875 -0.8974999785423279
          0.46459999680519104 0.5498999953269958 -0.694100022315979 0.5371999740600586 0.6970999836921692 -0.4747999906539917
          -0.8974999785423279 0.08349999785423279 0.43309998512268066 -0.8429999947547913 0.19910000264644623 0.4997999966144562
          -0.7336999773979187 0.1006999984383583 0.671999990940094 -0.388700008392334 -0.041099999099969864 0.9204000234603882
          -0.0034000000450760126 -0.031599998474121094 0.9994999766349792 0.27649998664855957 0.03460000082850456 0.9603999853134155
          -0.9151999950408936 0.05950000137090683 0.3986000120639801 -0.9595000147819519 -0.011599999852478504 0.2815000116825104
          -0.8842999935150146 0.13459999859333038 0.44699999690055847 0.48489999771118164 0.05480000004172325 0.8727999925613403
          0.6304000020027161 0.13300000131130219 0.7648000121116638 -0.9850999712944031 0.09570000320672989 0.14300000667572021
          -0.98580002784729 -0.011599999852478504 0.16779999434947968 0.7512999773025513 0.14190000295639038 0.6445000171661377
          -0.9908000230789185 -0.06379999965429306 0.11949999630451202 -0.978600025177002 -0.11270000040531158 -0.17239999771118164
          0.8626000285148621 -0.04729999974370003 0.5037000179290771 0.9772999882698059 0.13379999995231628 0.16419999301433563
          0.9293000102043152 -0.024399999529123306 0.3684999942779541 -0.7404000163078308 0.008100000210106373 -0.6721000075340271
          0.8705999851226807 0.48919999599456787 -0.05299999937415123 0.9851999878883362 0.1534000039100647 0.07699999958276749
          -0.24529999494552612 0.22010000050067902 -0.944100022315979 0.1534000039100647 0.2354000061750412 -0.9596999883651733
          0.3361000120639801 0.004699999932199717 -0.9417999982833862 0.34610000252723694 -0.10029999911785126 -0.9327999949455261
          0.181099995970726 -0.07159999758005142 -0.98089998960495 0.6488000154495239 0.6292999982833862 -0.4278999865055084
          0.2467000037431717 0.4320000112056732 -0.8675000071525574 0.45419999957084656 0.5231000185012817 -0.7210999727249146
          -0.7741000056266785 0.14429999887943268 0.6164000034332275 -0.8241999745368958 0.15080000460147858 0.5458999872207642
          -0.6629999876022339 0.033399999141693115 0.7479000091552734 -0.4860000014305115 -0.01600000075995922 0.8737999796867371
          -0.10249999910593033 0.018699999898672104 0.9945999979972839 0.22779999673366547 0.08240000158548355 0.9702000021934509
          -0.9474999904632568 0.07440000027418137 0.3109000027179718 -0.9101999998092651 0.10509999841451645 0.40070000290870667
          -0.8618000149726868 0.09600000083446503 0.498199999332428 0.5724999904632568 0.16599999368190765 0.8029999732971191
          -0.9810000061988831 -0.031199999153614044 0.19140000641345978 0.661300003528595 0.1915999948978424 0.7253000140190125
          -0.9764000177383423 -0.02250000089406967 -0.21469999849796295 0.7551000118255615 0.13210000097751617 0.6421999931335449
          0.8795999884605408 0.18950000405311584 0.43639999628067017 -0.8012999892234802 0.33570000529289246 -0.4952000081539154
          0.9473999738693237 0.3163999915122986 0.04839999973773956 -0.46160000562667847 0.43959999084472656 -0.7705000042915344
          0.03620000183582306 0.26649999618530273 -0.9631999731063843 0.3179999887943268 -0.10790000110864639 -0.9419000148773193
          0.1128000020980835 0.012600000016391277 -0.9934999942779541 0.8816999793052673 0.427700012922287 -0.19910000264644623
          0.7541000247001648 0.5343999862670898 -0.38190001249313354 0.34119999408721924 -0.07970000058412552 -0.9366000294685364
          0.260699987411499 -0.010499999858438969 -0.965399980545044 0.14380000531673431 0.24899999797344208 -0.9577999711036682
          0.2362000048160553 0.35510000586509705 -0.9045000076293945 0.5216000080108643 0.5131000280380249 -0.6816999912261963
          -0.8152999877929688 0.13009999692440033 0.564300000667572 -0.7764999866485596 0.18639999628067017 0.6018999814987183
          -0.7429999709129333 0.12870000302791595 0.6567999720573425 -0.5565000176429749 0.003800000064074993 0.8307999968528748
          -0.1598999947309494 0.02669999934732914 0.9868000149726868 0.13179999589920044 0.09049999713897705 0.9871000051498413
          -0.8763999938964844 0.09560000151395798 0.47200000286102295 -0.7860999703407288 0.08829999715089798 0.6116999983787537
          0.3993000090122223 0.11659999936819077 0.9093999862670898 0.5519000291824341 0.21739999949932098 0.8051000237464905
          -0.9358999729156494 0.08959999680519104 0.3407999873161316 -0.9818999767303467 0.05920000001788139 0.1800999939441681
          0.6352999806404114 0.26969999074935913 0.7235999703407288 -0.9851999878883362 0.14300000667572021 0.09430000185966492
          -0.9743000268936157 0.20260000228881836 -0.09880000352859497 0.8281999826431274 0.3578999936580658 0.43130001425743103
          -0.8011000156402588 0.499099999666214 -0.3301999866962433 -0.6521999835968018 0.5648999810218811 -0.5055000185966492
          -0.7258999943733215 0.3822999894618988 -0.5716999769210815 0.8805999755859375 0.47380000352859497 0.009800000116229057
          -0.2939999997615814 0.3095000088214874 -0.9042999744415283 -0.09690000116825104 0.1851000040769577 -0.9779000282287598
          0.6531000137329102 0.5680000185966492 -0.5008999705314636 0.8083999752998352 0.5317999720573425 -0.25220000743865967
          0.13740000128746033 0.1858000010251999 -0.9728999733924866 0.25529998540878296 0.21410000324249268 -0.9429000020027161
          0.1324000060558319 0.31189998984336853 -0.9409000277519226 0.24310000240802765 0.3978999853134155 -0.8845999836921692
          -0.7635999917984009 0.1412000060081482 0.6301000118255615 -0.7620999813079834 0.07649999856948853 0.6430000066757202
          -0.6428999900817871 0.008100000210106373 0.7659000158309937 -0.2928999960422516 0.022099999710917473 0.9559000134468079
          -0.910099983215332 0.12359999865293503 0.3955000042915344 -0.8967999815940857 0.12189999967813492 0.4253999888896942
          -0.8098999857902527 0.02669999934732914 0.5859000086784363 -0.7350999712944031 0.020999999716877937 0.6776000261306763
          0.38909998536109924 0.16449999809265137 0.9064000248908997 0.5496000051498413 0.24300000071525574 0.7993000149726868
          -0.9344000220298767 0.14880000054836273 0.3237999975681305 -0.9778000116348267 0.10199999809265137 0.18299999833106995
          -0.9114000201225281 0.1356000006198883 0.38839998841285706 0.5979999899864197 0.3984000086784363 0.6955000162124634
          -0.8799999952316284 0.42500001192092896 -0.21220000088214874 -0.963699996471405 0.22779999673366547 -0.13910000026226044
          0.6176000237464905 0.3257000148296356 0.7157999873161316 0.7979999780654907 0.44839999079704285 0.4027999937534332
          -0.739300012588501 0.0997999981045723 -0.6658999919891357 0.810699999332428 0.5674999952316284 -0.14419999718666077
          0.7973999977111816 0.6033999919891357 -0.0008999999845400453 -0.35510000586509705 0.25270000100135803 -0.8999999761581421
          -0.19750000536441803 0.3725999891757965 -0.9067000150680542 0.7300999760627747 0.5914999842643738 -0.3422999978065491
          -0.051600001752376556 0.43130001425743103 -0.9006999731063843 0.13279999792575836 0.4052000045776367 -0.9045000076293945
          0.11110000312328339 0.4025999903678894 -0.9085999727249146 0.25130000710487366 0.4129999876022339 -0.8754000067710876
          -0.6445000171661377 0.03750000149011612 0.763700008392334 -0.7401000261306763 -0.011599999852478504 0.6723999977111816
          -0.2703999876976013 0.03480000048875809 0.9621000289916992 0.019200000911951065 0.11819999665021896 0.9927999973297119
          -0.8277000188827515 0.015599999576807022 0.5609999895095825 -0.902400016784668 0.07900000363588333 0.4235999882221222
          -0.7128000259399414 -0.04800000041723251 0.6998000144958496 0.30239999294281006 0.17839999496936798 0.9362999796867371
          0.5001000165939331 0.20010000467300415 0.8425999879837036 -0.9596999883651733 0.1451999992132187 0.24070000648498535
          -0.9243999719619751 0.20829999446868896 0.319599986076355 -0.92330002784729 0.15860000252723694 0.349700003862381
          -0.9616000056266785 0.15150000154972076 0.22869999706745148 -0.9909999966621399 0.08060000091791153 -0.10700000077486038
          0.4733999967575073 0.5450999736785889 0.6919000148773193 0.5942000150680542 0.7249000072479248 0.3483999967575073
          -0.7944999933242798 0.1889999955892563 -0.5770999789237976 0.7207000255584717 0.6909000277519226 -0.05660000070929527
          0.4763000011444092 0.878600001335144 0.03590000048279762 -0.4268999993801117 0.3393000066280365 -0.8381999731063843
          -0.2199999988079071 0.47119998931884766 -0.8540999889373779 -0.164900004863739 0.5462999939918518 -0.8212000131607056
          -0.10729999840259552 0.5465999841690063 -0.8305000066757202 0.6474000215530396 0.5892999768257141 -0.48339998722076416
          0.7125999927520752 0.657800018787384 -0.24390000104904175 -0.0034000000450760126 0.5299999713897705 -0.8479999899864197
          0.016699999570846558 0.5016999840736389 -0.8648999929428101 0.17069999873638153 0.4514999985694885 -0.8758000135421753
          0.4921000003814697 0.5091000199317932 -0.7062000036239624 -0.7613000273704529 0.0982000008225441 0.6409000158309937
          -0.6909000277519226 0.22509999573230743 0.6869999766349792 -0.4056999981403351 0.16660000383853912 0.8986999988555908
          -0.17990000545978546 0.30489999055862427 0.9351999759674072 -0.8705999851226807 0.1062999963760376 0.48030000925064087
          -0.9207000136375427 0.14880000054836273 0.36079999804496765 -0.7233999967575073 -0.03779999911785126 0.6894000172615051
          -0.6746000051498413 0.07150000333786011 0.7347000241279602 0.13609999418258667 0.17790000140666962 0.9746000170707703
          0.5252000093460083 0.22300000488758087 0.8212000131607056 -0.9293000102043152 0.20000000298023224 0.31049999594688416
          -0.9246000051498413 0.23759999871253967 0.2976999878883362 0.6554999947547913 0.3917999863624573 0.6456000208854675
          -0.9381999969482422 0.2903999984264374 0.188400000333786 -0.9635999798774719 0.2483000010251999 -0.09950000047683716
          0.2937999963760376 0.8144999742507935 0.5001999735832214 0.5695000290870667 0.7319999933242798 0.37380000948905945
          -0.8095999956130981 0.4366999864578247 -0.39239999651908875 0.7258999943733215 0.6877999901771545 -0.0017999999690800905
          -0.557699978351593 0.48919999599456787 -0.6705999970436096 -0.21320000290870667 0.5220999717712402 -0.8258000016212463
          -0.06560000032186508 0.5435000061988831 -0.836899995803833 0.6101999878883362 0.7124000191688538 -0.3465999960899353
          -0.04879999905824661 0.5892000198364258 -0.8065000176429749 -0.0714000016450882 0.6054999828338623 -0.7926999926567078
          0.02850000001490116 0.5475000143051147 -0.8363000154495239 0.40549999475479126 0.6051999926567078 -0.6850000023841858
          -0.6039999723434448 0.3515999913215637 0.7152000069618225 -0.9135000109672546 0.1949000060558319 0.3571999967098236
          -0.8967000246047974 0.19679999351501465 0.39649999141693115 -0.8123000264167786 0.041099999099969864 0.5817999839782715
          -0.5906999707221985 -0.0738999992609024 0.8034999966621399 -0.3407000005245209 0.14659999310970306 0.9286999702453613
          0.16660000383853912 0.13770000636577606 0.9764000177383423 0.48750001192092896 0.27709999680519104 0.828000009059906
          -0.9236999750137329 0.24250000715255737 0.29660001397132874 -0.92330002784729 0.23890000581741333 0.30090001225471497
          -0.9228000044822693 0.23399999737739563 0.3061999976634979 0.6761000156402588 0.4323999881744385 0.5967000126838684
          -0.8707000017166138 0.48429998755455017 -0.08529999852180481 -0.9168000221252441 0.38999998569488525 0.08540000021457672
          -0.9340000152587891 0.2533999979496002 0.251800000667572 0.7523000240325928 0.5806999802589417 0.31119999289512634
          -0.7210999727249146 0.5483999848365784 -0.42340001463890076 -0.7838000059127808 0.5169000029563904 -0.3441999852657318
          0.7111999988555908 0.7020999789237976 -0.03610000014305115 -0.4077000021934509 0.5478000044822693 -0.7304999828338623
          -0.03440000116825104 0.5442000031471252 -0.8382999897003174 -0.01489999983459711 0.6136999726295471 -0.7893999814987183
          0.028999999165534973 0.6025000214576721 -0.7975999712944031 -0.1273999959230423 0.6459000110626221 -0.7526999711990356
          -0.21950000524520874 0.7269999980926514 -0.650600016117096 0.3935000002384186 0.8072999715805054 -0.43970000743865967
          0.4602000117301941 0.8044000267982483 -0.3756999969482422 -0.19419999420642853 0.7095999717712402 -0.6773999929428101
          0.042500000447034836 0.7851999998092651 -0.6176999807357788 -0.8604999780654907 0.0885000005364418 0.501800000667572
          -0.9182999730110168 0.16910000145435333 0.3580000102519989 -0.6542999744415283 -0.04749999940395355 0.7547000050544739
          -0.3483000099658966 -0.029400000348687172 0.9369000196456909 0.03359999880194664 0.1462000012397766 0.9886999726295471
          0.4180999994277954 0.36090001463890076 0.8335999846458435 -0.9312999844551086 0.21979999542236328 0.2906000018119812
          -0.9235000014305115 0.2639000117778778 0.2784000039100647 0.6391000151634216 0.47350001335144043 0.6060000061988831
          -0.9315999746322632 0.3156000077724457 0.18000000715255737 -0.9247999787330627 0.3799000084400177 -0.020500000566244125
          0.7202000021934509 0.5934000015258789 0.359499990940094 -0.794700026512146 0.5126000046730042 -0.32519999146461487
          -0.5641000270843506 0.5776000022888184 -0.5900999903678894 -0.12319999933242798 0.5392000079154968 -0.8331000208854675
          0.1404000073671341 0.5199000239372253 -0.8425999879837036 0.057100001722574234 0.637499988079071 -0.7682999968528748
          -0.20020000636577606 0.8251000046730042 -0.5282999873161316 0.193900004029274 0.7929999828338623 -0.5776000022888184
          0.013000000268220901 0.9060999751091003 -0.4228000044822693 0.5464000105857849 0.7537000179290771 -0.365200012922287
          -0.9301999807357788 0.125 0.3450999855995178 -0.8828999996185303 0.12409999966621399 0.453000009059906
          -0.7408999800682068 0.04280000180006027 0.670199990272522 -0.38260000944137573 0.07419999688863754 0.9208999872207642
          -0.05209999904036522 0.29760000109672546 0.9532999992370605 0.27619999647140503 0.5099999904632568 0.8145999908447266
          -0.9495000243186951 0.15129999816417694 0.27480000257492065 0.5365999937057495 0.5769000053405762 0.6158999800682068
          -0.8672999739646912 0.49549999833106995 -0.04800000041723251 -0.9300000071525574 0.3614000082015991 0.06629999727010727
          -0.9492999911308289 0.210099995136261 0.23399999737739563 0.6237999796867371 0.7342000007629395 0.2680000066757202
          -0.7670999765396118 0.5289000272750854 -0.3630000054836273 0.5645999908447266 0.8224999904632568 -0.06930000334978104
          -0.32170000672340393 0.5662999749183655 -0.7588000297546387 0.07090000063180923 0.5246000289916992 -0.8483999967575073