<?xml version="1.0"?>
<VTKFile type="PolyData" version="0.1" byte_order="LittleEndian" header_type="UInt32" compressor="vtkZLibDataCompressor">
  <PolyData>
    <FieldData>
      <Array type="String" Name="MaterialNames" NumberOfTuples="1" format="ascii">
        109 97 116 101 114 105 97 108 95 48 0
      </Array>
      <Array type="String" Name="MaterialLibraries" NumberOfTuples="1" format="ascii">
        109 97 116 101 114 105 97 108 46 109 116 108 0
      </Array>
    </FieldData>
    <Piece NumberOfPoints="880" NumberOfVerts="0" NumberOfLines="0" NumberOfStrips="0" NumberOfPolys="1738">
      <PointData Normals="Normals">
        <DataArray type="Float32" Name="Normals" NumberOfComponents="3" format="ascii" RangeMin="0.9999282042676699" RangeMax="1.0000658767941857">
          0.4366999864578247 0.8826000094413757 -0.17419999837875366 0.6385999917984009 0.7421000003814697 -0.20389999449253082
          0.6122000217437744 0.7081000208854675 -0.35179999470710754 0.6744999885559082 0.7260000109672546 -0.1340000033378601
          0.7694000005722046 0.6180999875068665 -0.16099999845027924 0.7232999801635742 0.6118000149726868 -0.32019999623298645
          0.7041000127792358 0.5327000021934509 -0.46950000524520874 0.7753999829292297 0.5659999847412109 -0.2800000011920929
          0.8256000280380249 0.5418999791145325 -0.15729999542236328 0.833299994468689 0.5432000160217285 -0.1023000031709671
          0.6998000144958496 0.7131999731063843 -0.04019999876618385 0.4562999904155731 0.8865000009536743 -0.07660000026226044
          0.20069999992847443 0.9764999747276306 -0.07840000092983246 0.32829999923706055 0.8944000005722046 -0.30379998683929443
          0.49070000648498535 0.7276999950408936 -0.47920000553131104 0.6136000156402588 0.5586000084877014 -0.5580999851226807
          0.40869998931884766 0.6586999893188477 -0.6316999793052673 0.2231999933719635 0.8295999765396118 -0.5116999745368958
          0.14350000023841858 0.9643999934196472 -0.22210000455379486 -0.009999999776482582 0.9994999766349792 0.029600000008940697
          0.024800000712275505 0.9980000257492065 0.05820000171661377 -0.12929999828338623 0.9799000024795532 0.15209999680519104
          0.04490000009536743 0.9948999881744385 0.09009999781847 0.21799999475479126 0.9753999710083008 0.031599998474121094
          0.44769999384880066 0.8902999758720398 0.08290000259876251 0.21050000190734863 0.9593999981880188 0.1876000016927719
          0.3950999975204468 0.8736000061035156 0.2840999960899353 0.6452999711036682 0.7426000237464905 0.17949999868869781
          0.7985000014305115 0.5914999842643738 0.11219999939203262 0.6395999789237976 0.6899999976158142 0.33889999985694885
          0.4415000081062317 0.7764999866485596 0.4496000111103058 0.22130000591278076 0.8410999774932861 0.4934999942779541
          0.3052999973297119 0.753000020980835 0.5828999876976013 0.5771999955177307 0.6780999898910522 0.45500001311302185
          0.7936999797821045 0.510200023651123 0.3314000070095062 0.9117000102996826 0.37059998512268066 0.17730000615119934
          0.888700008392334 0.4584999978542328 0.0020000000949949026 0.9473999738693237 0.3199000060558319 -0.009600000455975533
          0.8928999900817871 0.44279998540878296 -0.0820000022649765 0.8501999974250793 0.4876999855041504 -0.19830000400543213
          0.7782999873161316 0.48969998955726624 -0.39309999346733093 0.8517000079154968 0.4027000069618225 -0.3352999985218048
          0.9060999751091003 0.38260000944137573 -0.18060000240802765 0.9369999766349792 0.34769999980926514 -0.0333000011742115
          0.9642999768257141 0.2540999948978424 0.07519999891519547 0.975600004196167 0.1590999960899353 0.1509999930858612
          0.9053999781608582 0.2721000015735626 0.32600000500679016 0.7627999782562256 0.4478999972343445 0.46630001068115234
          0.5426999926567078 0.6570000052452087 0.5231999754905701 0.3544999957084656 0.7268999814987183 0.5881999731063843
          0.2630999982357025 0.7527999877929688 0.6033999919891357 0.10289999842643738 0.7652999758720398 0.6353999972343445
          0.02630000002682209 0.8076000213623047 0.5891000032424927 0.00860000029206276 0.9070000052452087 0.42100000381469727
          -0.022199999541044235 0.9786999821662903 0.20419999957084656 -0.14339999854564667 0.9742000102996826 0.17430000007152557
          -0.18000000715255737 0.9128999710083008 0.36629998683929443 -0.15610000491142273 0.8198999762535095 0.5508000254631042
          -0.29589998722076416 0.8705000281333923 0.39329999685287476 -0.24300000071525574 0.9304999709129333 0.27410000562667847
          -0.17949999868869781 0.972100019454956 0.15070000290870667 -0.10899999737739563 0.9927999973297119 -0.049800001084804535
          0.1200999990105629 0.972000002861023 -0.20190000534057617 0.17759999632835388 0.8230000138282776 -0.5396000146865845
          0.326200008392334 0.6421999931335449 -0.6937000155448914 0.5299000144004822 0.5095999836921692 -0.6779000163078308
          0.6431000232696533 0.49380001425743103 -0.5853999853134155 0.6610000133514404 0.4745999872684479 -0.5812000036239624
          0.7353000044822693 0.4731999933719635 -0.4851999878883362 0.8374000191688538 0.3991999924182892 -0.3734000027179718
          0.9164000153541565 0.3165000081062317 -0.2451000064611435 0.9726999998092651 0.21410000324249268 -0.08950000256299973
          0.9771999716758728 0.20630000531673431 0.05050000175833702 0.9789000153541565 0.11630000174045563 0.1680999994277954
          0.9932000041007996 -0.011900000274181366 0.11550000309944153 0.9937000274658203 -0.09440000355243683 0.06019999831914902
          0.9908999800682068 0.03880000114440918 -0.12929999828338623 0.9452999830245972 0.2362000048160553 -0.2249000072479248
          0.9047999978065491 0.29679998755455017 -0.3052000105381012 0.8062000274658203 0.41999998688697815 -0.41679999232292175
          0.6772000193595886 0.5501000285148621 -0.4887000024318695 0.6470999717712402 0.5182999968528748 -0.5591999888420105
          0.573199987411499 0.5253999829292297 -0.6287999749183655 0.7253000140190125 0.5976999998092651 -0.3416999876499176
          0.891700029373169 0.26339998841285706 -0.36800000071525574 0.9546999931335449 0.14020000398159027 -0.26249998807907104
          0.9761000275611877 -0.07660000026226044 -0.20360000431537628 0.9363999962806702 0.04039999842643738 -0.34860000014305115
          0.8865000009536743 0.09950000047683716 -0.4519999921321869 0.9154999852180481 0.3682999908924103 -0.16169999539852142
          0.23100000619888306 0.9724000096321106 -0.031599998474121094 0.6714000105857849 -0.1785999983549118 -0.7192999720573425
          0.6480000019073486 0.5641999840736389 -0.5115000009536743 0.16590000689029694 0.5379999876022339 -0.8263999819755554
          0.22779999673366547 0.8118000030517578 -0.5376999974250793 0.2084999978542328 0.30640000104904175 -0.9287999868392944
          0.5842999815940857 -0.121799997985363 -0.802299976348877 0.29330000281333923 0.08370000123977661 -0.9524000287055969
          0.6312999725341797 -0.057500001043081284 -0.7734000086784363 0.8471999764442444 0.016499999910593033 -0.5310999751091003
          0.9660000205039978 -0.04659999907016754 -0.2542000114917755 0.9539999961853027 -0.28929999470710754 -0.07909999787807465
          0.9557999968528748 -0.2939999997615814 -0.002199999988079071 0.8860999941825867 -0.43639999628067017 0.1559000015258789
          0.8468999862670898 -0.5199000239372253 0.11180000007152557 0.9408000111579895 -0.33719998598098755 0.03440000116825104
          0.9764999747276306 -0.03790000081062317 -0.21220000088214874 0.8698999881744385 0.20749999582767487 -0.4474000036716461
          0.618399977684021 0.09650000184774399 -0.7799000144004822 0.3239000141620636 0.1306000053882599 -0.9369999766349792
          0.267300009727478 0.4564000070095062 -0.8486999869346619 0.4424999952316284 0.6139000058174133 -0.6536999940872192
          0.42419999837875366 0.4805999994277954 -0.7675999999046326 0.40470001101493835 0.519599974155426 -0.7524999976158142
          0.29100000858306885 0.5019000172615051 -0.8144999742507935 0.24549999833106995 0.4487999975681305 -0.8592000007629395
          0.249099999666214 0.3492000102996826 -0.9032999873161316 0.4050999879837036 0.1704999953508377 -0.8981999754905701
          0.5109999775886536 0.11940000206232071 -0.8513000011444092 0.6658999919891357 0.20659999549388885 -0.7167999744415283
          0.715499997138977 0.23880000412464142 -0.6565999984741211 0.5478000044822693 -0.02930000051856041 -0.8360999822616577
          0.49000000953674316 0.05429999902844429 -0.8700000047683716 0.5813000202178955 -0.1728000044822693 -0.7950999736785889
          0.5062000155448914 -0.08990000188350677 -0.857699990272522 0.46369999647140503 0.04439999908208847 -0.8848999738693237
          0.40959998965263367 0.18279999494552612 -0.8937000036239624 0.33660000562667847 0.2443999946117401 -0.9093999862670898
          0.32600000500679016 0.3278000056743622 -0.8866999745368958 0.249099999666214 0.37540000677108765 -0.892799973487854
          0.24250000715255737 0.42809998989105225 -0.8705999851226807 0.25619998574256897 0.3935000002384186 -0.8828999996185303
          0.24120000004768372 0.38530001044273376 -0.8906999826431274 0.23360000550746918 0.2784000039100647 -0.9315999746322632
          0.26440000534057617 0.16140000522136688 -0.9508000016212463 0.3725999891757965 0.06350000202655792 -0.9258000254631042
          0.4165000021457672 -0.11129999905824661 -0.9023000001907349 0.27129998803138733 -0.09549999982118607 -0.9577999711036682
          0.16619999706745148 -0.00419999985024333 -0.9861000180244446 0.12929999828338623 0.18129999935626984 -0.9749000072479248
          0.18209999799728394 0.3212999999523163 -0.9293000102043152 0.10050000250339508 0.20819999277591705 -0.9728999733924866
          0.04780000075697899 0.06080000102519989 -0.996999979019165 0.11580000072717667 -0.04969999939203262 -0.9919999837875366
          0.31869998574256897 -0.15919999778270721 -0.9344000220298767 0.45239999890327454 -0.2630000114440918 -0.8521999716758728
          0.5633000135421753 -0.3375999927520752 -0.7541000247001648 0.7717000246047974 -0.42410001158714294 -0.4738999903202057
          0.7468000054359436 -0.3517000079154968 -0.5644999742507935 0.7972999811172485 -0.13850000500679016 -0.5874999761581421
          0.9510999917984009 0.14030000567436218 -0.2750999927520752 0.9433000087738037 -0.29809999465942383 -0.1462000012397766
          0.8762000203132629 -0.4668999910354614 -0.11990000307559967 0.8260999917984009 -0.5631999969482422 -0.018400000408291817
          0.7232000231742859 -0.5684999823570251 -0.3921000063419342 0.47510001063346863 -0.5541999936103821 -0.6834999918937683
          0.4839000105857849 -0.38600000739097595 -0.7853999733924866 0.3736000061035156 -0.2538999915122986 -0.8921999931335449
          0.21320000290870667 -0.1615999937057495 -0.9635000228881836 0.27730000019073486 -0.41130000352859497 -0.8683000206947327
          0.4767000079154968 -0.4830999970436096 -0.7343999743461609 0.5358999967575073 -0.7450000047683716 -0.3971000015735626
          0.5389000177383423 -0.7851999998092651 -0.3050999939441681 0.6527000069618225 -0.7576000094413757 0.007000000216066837
          0.7064999938011169 -0.6592000126838684 0.2574000060558319 0.8267999887466431 -0.5286999940872192 0.19179999828338623
          0.9097999930381775 -0.3971000015735626 0.12060000002384186 0.9871000051498413 -0.15119999647140503 -0.05180000141263008
          0.8702999949455261 -0.4507000148296356 0.19869999587535858 0.8073999881744385 -0.5210999846458435 0.2766999900341034
          0.714900016784668 -0.6245999932289124 0.31439998745918274 0.7979999780654907 -0.5439000129699707 0.2596000134944916
          0.7522000074386597 -0.5841000080108643 0.3050999939441681 0.795799970626831 -0.5449000000953674 0.2639000117778778
          0.8055999875068665 -0.5583999752998352 0.19789999723434448 0.7662000060081482 -0.6116999983787537 0.19709999859333038
          0.7382000088691711 -0.6295999884605408 0.24230000376701355 0.727400004863739 -0.6119999885559082 0.31040000915527344
          0.6783000230789185 -0.6315000057220459 0.3756999969482422 0.6833000183105469 -0.6520000100135803 0.32850000262260437
          0.6103000044822693 -0.729200005531311 0.30970001220703125 0.617900013923645 -0.6898999810218811 0.37720000743865967
          0.644599974155426 -0.7472000122070312 0.16189999878406525 0.6085000038146973 -0.7364000082015991 -0.2957000136375427
          0.4320000112056732 -0.6323000192642212 -0.6431000232696533 0.19339999556541443 -0.5317999720573425 -0.8245000243186951
          0.11659999936819077 -0.2980000078678131 -0.9473999738693237 0.03280000016093254 -0.12950000166893005 -0.9909999966621399
          -0.03889999911189079 -0.01810000091791153 -0.9991000294685364 -0.0917000025510788 -0.08449999988079071 -0.9922000169754028
          -0.10029999911785126 -0.2750999927520752 -0.9562000036239624 -0.004399999976158142 -0.42800000309944153 -0.9038000106811523
          -0.03830000013113022 -0.5428000092506409 -0.8389999866485596 -0.1467999964952469 -0.4250999987125397 -0.8931999802589417
          -0.2502000033855438 -0.2711000144481659 -0.9294999837875366 -0.210099995136261 -0.15129999816417694 -0.9659000039100647
          -0.23420000076293945 -0.057100001722574234 -0.9704999923706055 -0.34369999170303345 -0.0828000009059906 -0.9354000091552734
          -0.40230000019073486 -0.15399999916553497 -0.9024999737739563 -0.2685000002384186 -0.3203999996185303 -0.9085000157356262
          -0.1492999941110611 -0.4244000017642975 -0.8931000232696533 -0.021199999377131462 -0.5745999813079834 -0.8180999755859375
          0.12950000166893005 -0.6527000069618225 -0.746399998664856 0.3921000063419342 -0.6887999773025513 -0.6097000241279602
          0.5763999819755554 -0.7490000128746033 -0.32659998536109924 0.699400007724762 -0.7062000036239624 0.11020000278949738
          0.6155999898910522 -0.6675000190734863 0.4189000129699707 0.5974000096321106 -0.689300000667572 0.4097999930381775
          0.5644000172615051 -0.7588000297546387 0.32510000467300415 0.6334999799728394 -0.7085999846458435 0.310699999332428
          0.6277999877929688 -0.6488000154495239 0.4300000071525574 0.6064000129699707 -0.6762999892234802 0.41819998621940613
          0.5647000074386597 -0.7728999853134155 0.2896000146865845 0.5493999719619751 -0.7537999749183655 0.3605000078678131
          0.5953999757766724 -0.65829998254776 0.46059998869895935 0.6539000272750854 -0.6110000014305115 0.44620001316070557
          0.7886999845504761 -0.6132000088691711 0.04500000178813934 0.5699999928474426 -0.7095000147819519 -0.41440001130104065
          0.3441999852657318 -0.7404000163078308 -0.5773000121116638 0.12939999997615814 -0.7353000044822693 -0.6653000116348267
          0.37070000171661377 -0.7361999750137329 -0.5662000179290771 0.13760000467300415 -0.6814000010490417 -0.7189000248908997
          -0.005799999926239252 -0.5264000296592712 -0.8501999974250793 0.17630000412464142 -0.6500999927520752 -0.7390999794006348
          0.24770000576972961 -0.6826000213623047 -0.6875 0.20659999549388885 -0.7125999927520752 -0.6704999804496765
          0.14630000293254852 -0.6599000096321106 -0.7369999885559082 0.08429999649524689 -0.7973999977111816 -0.5975000262260437
          0.8432000279426575 -0.5120999813079834 -0.164000004529953 0.8133999705314636 -0.4544000029563904 0.36329999566078186
          0.6728000044822693 -0.5249000191688538 0.521399974822998 0.6362000107765198 -0.6516000032424927 0.4131999909877777
          0.5716999769210815 -0.7638000249862671 0.2994999885559082 0.4887000024318695 -0.8223000168800354 0.2915000021457672
          0.5432000160217285 -0.7268000245094299 0.4203999936580658 0.5249999761581421 -0.7768999934196472 0.3474000096321106
          0.6050999760627747 -0.7269999980926514 0.3246999979019165 0.6669999957084656 -0.6474000215530396 0.36880001425743103
          0.5745000243186951 -0.7360000014305115 0.3580999970436096 0.6001999974250793 -0.5874999761581421 0.5428000092506409
          0.8345999717712402 -0.34290000796318054 0.4311000108718872 0.6434999704360962 -0.33899998664855957 0.6862999796867371
          0.4595000147819519 -0.5246000289916992 0.71670001745224 0.516700029373169 -0.19869999587535858 0.8327999711036682
          0.3917999863624573 -0.4090000092983246 0.8241000175476074 0.4140999913215637 -0.0551999993622303 0.9085000157356262
          0.4772999882698059 -0.6801999807357788 0.5562999844551086 0.5123000144958496 -0.7024999856948853 0.49390000104904175
          0.48730000853538513 -0.7764999866485596 0.39959999918937683 0.5313000082969666 -0.7591000199317932 0.37610000371932983
          0.5713000297546387 -0.7267000079154968 0.3815999925136566 0.5385000109672546 -0.7642999887466431 0.3549000024795532
          0.4018000066280365 -0.7142000198364258 0.5730999708175659 0.37229999899864197 -0.32109999656677246 0.8708000183105469
          0.46149998903274536 -0.7050999999046326 0.5383999943733215 0.49399998784065247 -0.8008000254631042 0.3384999930858612
          0.5715000033378601 -0.7628999948501587 0.30230000615119934 0.3970000147819519 -0.6305000185966492 0.6669999957084656
          0.2896000146865845 0.06449999660253525 0.9549999833106995 0.05810000002384186 0.6693999767303467 0.7405999898910522
          -0.15569999814033508 -0.5960000157356262 0.7878000140190125 0.5375999808311462 -0.802299976348877 0.25940001010894775
          0.6308000087738037 -0.7559000253677368 0.17520000040531158 0.6283000111579895 -0.743399977684021 0.22930000722408295
          0.6351000070571899 -0.7218999862670898 0.27480000257492065 0.590499997138977 -0.7488999962806702 0.30070000886917114
          0.5095000267028809 -0.7996000051498413 0.31779998540878296 0.5447999835014343 -0.7689999938011169 0.3345000147819519
          0.6215000152587891 -0.6937000155448914 0.36390000581741333 0.5920000076293945 -0.6913999915122986 0.4140999913215637
          0.5853999853134155 -0.678600013256073 0.44369998574256897 0.6001999974250793 -0.663100004196167 0.4474000036716461
          0.5803999900817871 -0.7084000110626221 0.40149998664855957 0.5740000009536743 -0.7278000116348267 0.37529999017715454
          0.6254000067710876 -0.7179999947547913 0.305400013923645 0.6700999736785889 -0.6998999714851379 0.24719999730587006
          0.7179999947547913 -0.6593000292778015 0.2232999950647354 0.8058000206947327 -0.5450999736785889 0.23149999976158142
          0.9261000156402588 -0.3140000104904175 0.20919999480247498 0.9632999897003174 -0.15929999947547913 0.21610000729560852
          0.9842000007629395 -0.013299999758601189 0.17679999768733978 0.9679999947547913 0.03739999979734421 0.24819999933242798
          0.8686000108718872 0.2328999936580658 0.4372999966144562 0.6283000111579895 0.44850000739097595 0.635699987411499
          0.5514000058174133 0.6269000172615051 0.5504000186920166 0.3111000061035156 0.7631000280380249 0.5665000081062317
          0.4043000042438507 0.6334999799728394 0.6596999764442444 0.2362000048160553 0.7121999859809875 0.6610999703407288
          0.367900013923645 0.5702000260353088 0.734499990940094 0.6348999738693237 0.4034999907016754 0.6588000059127808
          0.8174999952316284 0.29100000858306885 0.4970000088214874 0.548799991607666 0.4487000107765198 0.705299973487854
          0.23499999940395355 0.5982999801635742 0.7660999894142151 0.1354999989271164 0.7026000022888184 0.6985999941825867
          0.16019999980926514 0.7684999704360962 0.6194999814033508 -0.029200000688433647 0.7670999765396118 0.6409000158309937
          0.03220000118017197 0.7498000264167786 0.6608999967575073 0.004100000020116568 0.7024999856948853 0.7117000222206116
          -0.09880000352859497 0.732699990272522 0.67330002784729 -0.22869999706745148 0.7860000133514404 0.5742999911308289
          -0.34790000319480896 0.8281000256538391 0.43939998745918274 -0.35179999470710754 0.8162000179290771 0.45829999446868896
          -0.3564000129699707 0.7440999746322632 0.5649999976158142 -0.21330000460147858 0.7178999781608582 0.6626999974250793
          -0.14790000021457672 0.7142999768257141 0.6840000152587891 -0.09130000323057175 0.6912999749183655 0.71670001745224
          0.13729999959468842 0.6676999926567078 0.7317000031471252 0.3560999929904938 0.5587999820709229 0.7488999962806702
          0.57669997215271 0.43050000071525574 0.6942999958992004 0.8179000020027161 0.40619999170303345 0.4074999988079071
          0.9883000254631042 0.028300000354647636 0.14959999918937683 0.9573000073432922 -0.2370000034570694 0.16539999842643738
          0.890999972820282 -0.399399995803833 0.2159000039100647 0.8044999837875366 -0.5716999769210815 0.1607999950647354
          0.7013999819755554 -0.6998000144958496 0.13510000705718994 0.6323999762535095 -0.7573000192642212 0.163100004196167
          0.5730000138282776 -0.7936000227928162 0.20479999482631683 0.5432000160217285 -0.7971000075340271 0.2635999917984009
          0.5867000222206116 -0.7644000053405762 0.26739999651908875 0.5224999785423279 -0.8518999814987183 0.03530000150203705
          0.5562000274658203 -0.8294000029563904 -0.05180000141263008 0.6389999985694885 -0.767300009727478 -0.054099999368190765
          0.7720000147819519 -0.6261000037193298 -0.1096000000834465 0.9135000109672546 -0.4052000045776367 0.0364999994635582
          0.9441999793052673 -0.24140000343322754 -0.2240000069141388 0.978600025177002 0.16910000145435333 -0.11729999631643295
          0.8914999961853027 -0.2971999943256378 -0.34200000762939453 0.7455000281333923 -0.5812000036239624 -0.3262999951839447
          0.555400013923645 -0.8036999702453613 -0.21359999477863312 0.4814000129699707 -0.866100013256073 -0.1348000019788742
          0.38589999079704285 -0.916700005531311 -0.10369999706745148 0.45680001378059387 -0.8867999911308289 0.0697999969124794
          0.5640000104904175 -0.7469000220298767 0.3522000014781952 0.5454999804496765 -0.7791000008583069 0.3089999854564667
          0.4059999883174896 -0.8959000110626221 0.18039999902248383 0.4629000127315521 -0.8849999904632568 0.04960000142455101
          0.399399995803833 -0.9139000177383423 -0.07280000299215317 0.37790000438690186 -0.92330002784729 -0.0689999982714653
          0.3682999908924103 -0.9241999983787537 -0.10100000351667404 0.4397999942302704 -0.8981000185012817 0.004399999976158142
          0.5134000182151794 -0.8575999736785889 -0.02889999933540821 0.555899977684021 -0.8205999732017517 0.13279999792575836
          0.6909000277519226 -0.6617000102996826 0.2912999987602234 0.45989999175071716 -0.8805000185966492 0.11500000208616257
          0.4481000006198883 -0.8934999704360962 -0.03020000085234642 0.4832000136375427 -0.8680999875068665 -0.11320000141859055
          0.6402999758720398 -0.7648000121116638 0.07079999893903732 0.5386000275611877 -0.838100016117096 -0.08640000224113464
          0.47909998893737793 -0.8773999810218811 0.026499999687075615 0.4717999994754791 -0.83160001039505 0.2930000126361847
          0.510699987411499 -0.7825999855995178 0.35589998960494995 0.5464000105857849 -0.7684000134468079 0.33320000767707825
          0.6478000283241272 -0.4311999976634979 0.628000020980835 0.5016999840736389 -0.3785000145435333 0.777899980545044
          0.38510000705718994 -0.44620001316070557 0.8077999949455261 0.2874000072479248 -0.5985999703407288 0.7476999759674072
          0.3596999943256378 -0.8629999756813049 0.3547999858856201 0.3709999918937683 -0.8234000205993652 0.4293000102043152
          0.4794999957084656 -0.8766000270843506 0.04129999876022339 0.5074999928474426 -0.8614000082015991 -0.02070000022649765
          0.6833000183105469 -0.7218000292778015 0.10970000177621841 0.6614999771118164 -0.6710000038146973 0.33489999175071716
          0.6452999711036682 -0.6478999853134155 0.4047999978065491 0.6845999956130981 -0.6571999788284302 0.31529998779296875
          0.6542999744415283 -0.7289000153541565 0.20170000195503235 0.4975000023841858 -0.8648999929428101 0.06650000065565109
          0.41519999504089355 -0.9092000126838684 -0.029600000008940697 0.4278999865055084 -0.8737000226974487 0.2312999963760376
          0.40630000829696655 -0.7240999937057495 0.5572999715805054 0.10409999638795853 -0.38440001010894775 0.9172999858856201
          0.01889999955892563 -0.06390000134706497 0.9977999925613403 0.12150000035762787 0.07010000199079514 0.9901000261306763
          0.18160000443458557 0.21050000190734863 0.9606000185012817 0.4187000095844269 0.11180000007152557 0.901199996471405
          0.5898000001907349 0.1615000069141388 0.7911999821662903 0.7720000147819519 -0.29190000891685486 0.5645999908447266
          0.7746000289916992 -0.2312999963760376 0.5885999798774719 0.7662000060081482 0.2298000007867813 0.6001999974250793
          0.462799996137619 0.4869000017642975 0.7407000064849854 0.2418999969959259 0.5059999823570251 0.8278999924659729
          0.1348000019788742 0.5160999894142151 0.8458999991416931 -0.01679999940097332 0.5591999888420105 0.8288999795913696
          -0.12759999930858612 0.5202000141143799 0.8443999886512756 -0.18770000338554382 0.4490000009536743 0.8736000061035156
          -0.2159000039100647 0.1704999953508377 0.9613999724388123 -0.35260000824928284 0.46869999170303345 0.8100000023841858
          -0.2337000072002411 0.257099986076355 0.9376999735832214 0.22290000319480896 -0.15469999611377716 0.9624999761581421
          -0.19539999961853027 0.3919000029563904 0.8989999890327454 -0.4429999887943268 0.5914999842643738 0.6736999750137329
          -0.14640000462532043 0.41819998621940613 0.8964999914169312 -0.003599999938160181 0.19850000739097595 0.9800999760627747
          -0.2556000053882599 0.47690001130104065 0.8410000205039978 -0.024800000712275505 -0.008100000210106373 0.9997000098228455
          0.31700000166893005 -0.41110000014305115 0.8547000288963318 0.4724999964237213 -0.7340999841690063 0.4876999855041504
          0.4661000072956085 -0.8766000270843506 0.11990000307559967 0.541700005531311 -0.840399980545044 -0.018400000408291817
          0.6442999839782715 -0.7480999827384949 0.15870000422000885 0.6543999910354614 -0.7540000081062317 0.05779999867081642
          0.5468000173568726 -0.8073999881744385 0.22169999778270721 0.3634999990463257 -0.7663000226020813 0.5297999978065491
          0.17990000545978546 -0.5583999752998352 0.8098000288009644 0.40700000524520874 -0.7350999712944031 0.5422000288963318
          0.16359999775886536 -0.3091000020503998 0.9368000030517578 -0.1941000074148178 0.2508000135421753 0.9484000205993652
          -0.17000000178813934 0.09279999881982803 0.9811000227928162 -0.26750001311302185 0.6485000252723694 0.7127000093460083
          -0.46869999170303345 0.6586999893188477 0.5885999798774719 -0.6061999797821045 0.6757000088691711 0.41940000653266907
          -0.4844000041484833 0.8129000067710876 0.32330000400543213 -0.1446000039577484 0.8763999938964844 0.4593999981880188
          -0.07620000094175339 0.4596000015735626 0.8848000168800354 -0.30660000443458557 0.7189000248908997 0.6238999962806702
          -0.40070000290870667 0.8913000226020813 0.21209999918937683 -0.3474999964237213 0.9345999956130981 0.07670000195503235
          -0.5939000248908997 0.8037999868392944 -0.03400000184774399 -0.6455000042915344 0.7409999966621399 0.18520000576972961
          -0.4577000141143799 0.6208000183105469 0.6363999843597412 -0.03880000114440918 0.25529998540878296 0.9660999774932861
          0.10589999705553055 -0.3465999960899353 0.9319999814033508 0.060100000351667404 -0.3903000056743622 0.9186999797821045
          0.3847000002861023 -0.6371999979019165 0.6678000092506409 0.6416000127792358 -0.7113000154495239 0.28700000047683716
          0.513700008392334 -0.6365000009536743 0.5752999782562256 0.6277999877929688 -0.7067000269889832 0.326200008392334
          0.4498000144958496 -0.6284000277519226 0.6345999836921692 0.3043999969959259 -0.30000001192092896 0.9041000008583069
          -0.019700000062584877 0.2152000069618225 0.9764000177383423 0.31380000710487366 -0.3230000138282776 0.8928999900817871
          0.45509999990463257 -0.6434000134468079 0.6155999898910522 0.5755000114440918 -0.7208999991416931 0.38609999418258667
          0.515999972820282 -0.7354000210762024 0.439300000667572 0.5733000040054321 -0.754800021648407 0.3188000023365021
          0.4767000079154968 -0.7466999888420105 0.46380001306533813 0.4117000102996826 -0.515500009059906 0.7515000104904175
          0.1298999935388565 0.09849999845027924 0.9865999817848206 -0.2992999851703644 0.7423999905586243 0.599399983882904
          -0.6675999760627747 0.739799976348877 0.08420000225305557 -0.6998999714851379 0.7071999907493591 -0.10010000318288803
          -0.7081000208854675 0.6895999908447266 -0.15209999680519104 -0.7384999990463257 0.6715999841690063 -0.05999999865889549
          -0.7505999803543091 0.6470000147819519 -0.13449999690055847 -0.7214000225067139 0.661300003528595 -0.20559999346733093
          -0.6751999855041504 0.7190999984741211 -0.16449999809265137 -0.7088000178337097 0.6850000023841858 -0.16840000450611115
          -0.6496999859809875 0.7598999738693237 0.021299999207258224 -0.2842999994754791 0.8880000114440918 0.36149999499320984
          0.009499999694526196 0.39809998869895935 0.9172999858856201 0.23929999768733978 -0.20520000159740448 0.9490000009536743
          0.29120001196861267 -0.6269999742507935 0.7225000262260437 0.4345000088214874 -0.7261999845504761 0.532800018787384
          0.4359000027179718 -0.8083000183105469 0.39559999108314514 0.5008999705314636 -0.7932000160217285 0.34619998931884766
          0.43970000743865967 -0.8228999972343445 0.3596999943256378 0.36160001158714294 -0.7936000227928162 0.489300012588501