<?xml version="1.0"?>
<VTKFile type="PolyData" version="0.1" byte_order="LittleEndian" header_type="UInt32" compressor="vtkZLibDataCompressor">
  <PolyData>
    <FieldData>
      <Array type="String" Name="MaterialNames" NumberOfTuples="1" format="ascii">
        109 97 116 101 114 105 97 108 95 48 0
      </Array>
      <Array type="String" Name="MaterialLibraries" NumberOfTuples="1" format="ascii">
        109 97 116 101 114 105 97 108 46 109 116 108 0
      </Array>
    </FieldData>
    <Piece NumberOfPoints="310" NumberOfVerts="0" NumberOfLines="0" NumberOfStrips="0" NumberOfPolys="616">
      <PointData Normals="Normals">
        <DataArray type="Float32" Name="Normals" NumberOfComponents="3" format="ascii" RangeMin="0.99993629377618" RangeMax="1.000063757076042">
          0.002099999925121665 0.1835000067949295 -0.9829999804496765 -0.3149000108242035 0.27790001034736633 -0.9075000286102295
          -0.16099999845027924 0.3021000027656555 -0.9395999908447266 -0.06750000268220901 -0.4771000146865845 0.8762999773025513
          0.16699999570846558 -0.40939998626708984 0.8968999981880188 -0.2651999890804291 -0.31520000100135803 0.9111999869346619
          0.6395999789237976 -0.39890000224113464 -0.6571000218391418 0.3743000030517578 -0.39239999651908875 -0.8402000069618225
          0.6299999952316284 -0.2854999899864197 -0.7222999930381775 -0.6797000169754028 0.061799999326467514 0.73089998960495
          -0.4043999910354614 0.09600000083446503 0.909500002861023 -0.5156999826431274 0.15940000116825104 0.8417999744415283
          0.14409999549388885 -0.4343000054359436 0.88919997215271 0.3601999878883362 -0.4302999973297119 0.8277000188827515
          0.2214999943971634 -0.3734000027179718 0.9009000062942505 0.1080000028014183 0.5138000249862671 -0.8511000275611877
          0.311599999666214 0.626800000667572 -0.7142000198364258 0.557699978351593 0.41909998655319214 -0.7164999842643738
          -0.9412999749183655 -0.2013999968767166 0.27070000767707825 -0.9483000040054321 -0.31709998846054077 -0.01119999960064888
          -0.9151999950408936 -0.2892000079154968 0.2808000147342682 0.28700000047683716 0.8913999795913696 -0.3506999909877777
          0.24660000205039978 0.6988999843597412 -0.6712999939918518 0.09619999676942825 0.8345999717712402 -0.5424000024795532
          0.4142000079154968 -0.31700000166893005 -0.8532000184059143 0.27889999747276306 -0.08810000121593475 -0.9563000202178955
          0.31279999017715454 -0.1746000051498413 -0.9336000084877014 0.26910001039505005 -0.01730000041425228 0.9629999995231628
          -0.03629999980330467 -0.10270000249147415 0.9940000176429749 0.17589999735355377 0.2506999969482422 0.9519000053405762
          0.13009999692440033 -0.02630000002682209 0.9911999702453613 0.021299999207258224 0.3264999985694885 0.9449999928474426
          -0.24449999630451202 0.04439999908208847 0.9685999751091003 -0.5209000110626221 0.36309999227523804 -0.772599995136261
          -0.5557000041007996 0.42489999532699585 -0.7146000266075134 -0.305400013923645 0.33009999990463257 -0.8931999802589417
          0.7544999718666077 0.460099995136261 -0.46799999475479126 0.026599999517202377 0.2513999938964844 0.9674999713897705
          0.6858999729156494 0.3345000147819519 0.6463000178337097 0.05660000070929527 0.050700001418590546 0.9970999956130981
          -0.4047999978065491 0.9125999808311462 0.05779999867081642 -0.6223000288009644 0.7200999855995178 0.3068999946117401
          -0.006500000134110451 0.9837999939918518 0.17900000512599945 -0.5410000085830688 0.5324000120162964 -0.6510000228881836
          -0.7638999819755554 0.3635999858379364 -0.5332000255584717 -0.7236999869346619 0.05660000070929527 -0.6877999901771545
          0.2973000109195709 0.04729999974370003 -0.9535999894142151 0.24169999361038208 0.00989999994635582 -0.970300018787384
          0.03269999846816063 0.11869999766349792 -0.9923999905586243 0.8169000148773193 -0.4410000145435333 0.3716000020503998
          0.9122999906539917 -0.40880000591278076 -0.023499999195337296 0.9783999919891357 -0.19179999828338623 0.07720000296831131
          -0.7990000247955322 -0.5794000029563904 0.16089999675750732 -0.4763999879360199 -0.8773000240325928 0.05820000171661377
          -0.7516000270843506 -0.5091999769210815 0.41920000314712524 -0.037300001829862595 0.7254999876022339 -0.6872000098228455
          -0.5454000234603882 0.739300012588501 -0.39489999413490295 -0.796500027179718 0.5992000102996826 0.08100000023841858
          -0.44670000672340393 0.8452000021934509 -0.29350000619888306 -0.48890000581741333 -0.6377000212669373 0.5952000021934509
          -0.948199987411499 -0.30559998750686646 0.08730000257492065 -0.9103999733924866 -0.4124999940395355 0.030799999833106995
          -0.48069998621940613 -0.49779999256134033 0.7218000292778015 0.009499999694526196 -0.383899986743927 0.92330002784729
          -0.32760000228881836 -0.17470000684261322 0.9284999966621399 0.6527000069618225 -0.1981000006198883 -0.7311999797821045
          0.8514999747276306 -0.5185999870300293 -0.07779999822378159 0.7436000108718872 -0.23999999463558197 -0.6241000294685364
          0.25049999356269836 -0.6107000112533569 -0.7512000203132629 -0.34049999713897705 -0.4587000012397766 0.8206999897956848
          -0.9593999981880188 0.1518000066280365 -0.2378000020980835 -0.6309999823570251 0.3384000062942505 -0.6980999708175659
          -0.7021999955177307 0.29510000348091125 -0.6478999853134155 -0.9463000297546387 -0.05779999867081642 0.3181999921798706
          -0.9362000226974487 -0.14509999752044678 0.32010000944137573 -0.8300999999046326 0.026900000870227814 0.5569000244140625
          -0.8690000176429749 0.4072999954223633 -0.28110000491142273 -0.9635000228881836 0.23890000581741333 0.12039999663829803
          -0.9233999848365784 0.3750999867916107 0.08100000023841858 0.9226999878883362 0.26919999718666077 -0.2757999897003174
          0.9556000232696533 0.266400009393692 -0.12610000371932983 0.9555000066757202 -0.16609999537467957 -0.24390000104904175
          0.6272000074386597 -0.7688999772071838 0.12449999898672104 0.6632999777793884 -0.6197999715805054 -0.41940000653266907
          0.9413999915122986 -0.32429999113082886 -0.09269999712705612 -0.3612000048160553 -0.11550000309944153 0.9253000020980835
          -0.22759999334812164 0.031700000166893005 0.9732000231742859 -0.33340001106262207 0.10830000042915344 0.9366000294685364
          -0.5383999943733215 -0.23970000445842743 0.8079000115394592 -0.30489999055862427 -0.1265999972820282 0.9438999891281128
          -0.6306999921798706 -0.06989999860525131 0.7728999853134155 -0.06930000334978104 -0.7603999972343445 0.645799994468689
          0.3391000032424927 -0.6972000002861023 0.631600022315979 -0.11289999634027481 -0.4226999878883362 0.8992000222206116
          0.8126999735832214 0.579200029373169 0.06390000134706497 0.8476999998092651 0.5300999879837036 0.022199999541044235
          0.9228000044822693 0.36419999599456787 -0.12549999356269836 -0.38999998569488525 0.6628000140190125 0.63919997215271
          -0.10819999873638153 0.8967999815940857 0.42899999022483826 0.6636999845504761 -0.14329999685287476 -0.7342000007629395
          0.9150000214576721 -0.08110000193119049 -0.3953000009059906 0.7355999946594238 -0.29600000381469727 -0.6093000173568726
          0.5893999934196472 -0.10729999840259552 -0.8007000088691711 -0.058400001376867294 -0.12600000202655792 -0.9902999997138977
          0.1023000031709671 -0.31290000677108765 -0.9442999958992004 -0.40119999647140503 -0.0210999995470047 -0.9157999753952026
          -0.3244999945163727 0.303600013256073 -0.895799994468689 -0.22360000014305115 0.2563000023365021 -0.9404000043869019
          -0.4406000077724457 0.25920000672340393 -0.8593999743461609 -0.2084999978542328 0.5800999999046326 -0.7874000072479248
          -0.21389999985694885 0.8082000017166138 -0.5486999750137329 0.37540000677108765 0.20980000495910645 0.9028000235557556
          0.20890000462532043 -0.4537999927997589 0.8662999868392944 -0.11550000309944153 -0.21699999272823334 0.9692999720573425
          -0.2851000130176544 -0.45730000734329224 0.8424000144004822 -0.04690000042319298 -0.5234000086784363 0.8507999777793884
          -0.12460000067949295 -0.5903000235557556 0.7975000143051147 -0.17219999432563782 -0.3237000107765198 0.9302999973297119
          0.6629999876022339 -0.7110000252723694 0.2345000058412552 0.5572999715805054 -0.6708999872207642 -0.48919999599456787
          0.1574999988079071 -0.8439000248908997 -0.5127999782562256 0.4390000104904175 -0.6029000282287598 -0.666100025177002
          0.11420000344514847 0.16359999775886536 -0.9799000024795532 0.16509999334812164 -0.012000000104308128 -0.9861999750137329
          -0.9817000031471252 0.12439999729394913 -0.14429999887943268 -0.980400025844574 -0.17759999632835388 -0.08489999920129776
          -0.6723999977111816 -0.19099999964237213 0.7150999903678894 -0.8586000204086304 0.1826000064611435 -0.4790000021457672
          -0.7888000011444092 0.09210000187158585 -0.607699990272522 0.05169999971985817 0.18289999663829803 0.9818000197410583
          0.4828999936580658 0.029100000858306885 0.8751999735832214 0.09600000083446503 -0.2517000138759613 0.9629999995231628
          0.055799998342990875 -0.9793000221252441 0.19480000436306 0.5067999958992004 -0.5995000004768372 -0.6194999814033508
          0.32519999146461487 -0.7897999882698059 -0.5199999809265137 -0.708299994468689 -0.43880000710487366 0.5529000163078308
          0.38260000944137573 -0.5400000214576721 -0.7497000098228455 0.6190999746322632 -0.373199999332428 -0.6909000277519226
          0.609000027179718 -0.7660999894142151 0.2053000032901764 0.02539999969303608 -0.742900013923645 -0.6689000129699707
          -0.8927000164985657 0.35010001063346863 0.28360000252723694 -0.848800003528595 0.13369999825954437 0.5115000009536743
          -0.7203999757766724 0.4903999865055084 0.4903999865055084 -0.989300012588501 0.06419999897480011 0.13130000233650208
          -0.9402999877929688 0.06560000032186508 0.33410000801086426 -0.49790000915527344 0.7479000091552734 0.4390000104904175
          -0.1152999997138977 0.5960999727249146 0.7946000099182129 -0.3052000105381012 0.9520000219345093 0.02160000056028366
          0.32679998874664307 0.7657999992370605 0.5539000034332275 0.5925999879837036 0.5728999972343445 0.5662999749183655
          0.3212999999523163 0.9455999732017517 0.05040000006556511 0.23250000178813934 -0.2590000033378601 0.9375
          0.37299999594688416 -0.20180000364780426 0.9056000113487244 -0.8051999807357788 -0.10750000178813934 0.5831000208854675
          -0.852400004863739 0.5220999717712402 -0.029899999499320984 -0.671500027179718 0.5339999794960022 -0.5138000249862671
          -0.8174999952316284 0.5702999830245972 0.07980000227689743 0.7368000149726868 0.6758999824523926 -0.018200000748038292
          0.9002000093460083 0.4327999949455261 -0.04809999838471413 0.7904000282287598 0.5684999823570251 -0.2282000035047531
          0.5835999846458435 0.6931999921798706 -0.42289999127388 0.11509999632835388 0.8526999950408936 -0.5095999836921692
          0.34940001368522644 0.9261999726295471 -0.1420000046491623 -0.17679999768733978 0.9337999820709229 0.3111000061035156
          0.47540000081062317 0.8773000240325928 -0.06539999693632126 -0.6055999994277954 0.6565999984741211 0.4496999979019165
          -0.9226999878883362 -0.3424000144004822 0.17720000445842743 -0.784500002861023 -0.11550000309944153 0.6093000173568726
          -0.5300999879837036 0.39980000257492065 0.7476999759674072 0.04600000008940697 -0.5188000202178955 0.853600025177002
          -0.6355999708175659 -0.4970000088214874 0.5907999873161316 -0.10740000009536743 -0.2896000146865845 0.9510999917984009
          0.17389999330043793 -0.8432000279426575 -0.5085999965667725 0.7085999846458435 -0.5400000214576721 -0.45419999957084656
          0.5623000264167786 -0.043800000101327896 -0.8256999850273132 -0.18299999833106995 0.367900013923645 -0.9117000102996826
          0.007499999832361937 0.5864999890327454 -0.8098999857902527 0.11749999970197678 0.350600004196167 -0.929099977016449
          0.8154000043869019 -0.2502000033855438 -0.5220000147819519 0.8224999904632568 -0.15369999408721924 -0.5475999712944031
          0.9244999885559082 -0.08009999990463257 -0.37279999256134033 0.8077999949455261 0.2498999983072281 -0.5339000225067139
          0.15880000591278076 -0.03269999846816063 0.9868000149726868 0.7508999705314636 0.06530000269412994 0.6571999788284302
          0.7164999842643738 -0.1996999979019165 0.66839998960495 0.9926999807357788 -0.07620000094175339 0.09350000321865082
          0.9977999925613403 0.05139999836683273 0.04129999876022339 0.9800999760627747 0.03350000083446503 -0.19580000638961792
          0.9617000222206116 0.2167000025510788 -0.16760000586509705 0.9445000290870667 0.32339999079704285 0.058400001376867294
          0.32739999890327454 0.38760000467300415 -0.8616999983787537 0.4878000020980835 0.10849999636411667 -0.8661999702453613
          0.25949999690055847 -0.42320001125335693 -0.8680999875068665 0.07919999957084656 0.193900004029274 -0.9778000116348267
          0.3422999978065491 -0.10649999976158142 -0.9336000084877014 0.18950000405311584 -0.4814000129699707 -0.8557999730110168
          0.7736999988555908 -0.018200000748038292 -0.6333000063896179 0.7886999845504761 -0.10509999841451645 0.6057000160217285
          0.6001999974250793 0.25769999623298645 0.7572000026702881 0.9639000296592712 0.1331000030040741 0.2305999994277954
          0.8639000058174133 -0.36559998989105225 -0.3465999960899353 0.6984000205993652 -0.4771000146865845 -0.5333999991416931
          -0.4375999867916107 -0.4708999991416931 0.765999972820282 -0.5550000071525574 -0.40779998898506165 0.7250000238418579
          -0.16269999742507935 -0.36550000309944153 0.9164999723434448 0.2924000024795532 0.8662999868392944 0.4050000011920929
          0.20200000703334808 -0.8729000091552734 0.4442000091075897 -0.5156000256538391 -0.8382999897003174 0.17710000276565552
          -0.4957999885082245 -0.7735999822616577 -0.39469999074935913 -0.7712000012397766 -0.6032999753952026 -0.2029999941587448
          -0.9132999777793884 -0.4065000116825104 0.02370000071823597 -0.5267999768257141 -0.42890000343322754 0.7339000105857849
          -0.32409998774528503 -0.2425999939441681 0.9143999814987183 -0.7813000082969666 0.15469999611377716 -0.6047000288963318
          -0.8747000098228455 0.017899999395012856 -0.4844000041484833 0.47589999437332153 0.8393999934196472 0.26249998807907104
          -0.5467000007629395 0.7972000241279602 0.25609999895095825 0.40709999203681946 0.18770000338554382 0.8938999772071838
          -0.2759999930858612 0.9351999759674072 -0.22200000286102295 -0.6741999983787537 0.23579999804496765 0.6998999714851379
          0.3864000141620636 0.1290999948978424 -0.9132000207901001 0.6159999966621399 0.17790000140666962 -0.7674000263214111
          0.25589999556541443 -0.7348999977111816 0.628000020980835 -0.319599986076355 -0.8325999975204468 -0.45239999890327454
          -0.487199991941452 -0.8468999862670898 -0.21299999952316284 0.9750999808311462 -0.1673000007867813 -0.14579999446868896
          0.7208999991416931 -0.4749000072479248 0.5047000050544739 -0.3752000033855438 -0.23960000276565552 0.8955000042915344
          -0.6402999758720398 -0.3634999990463257 0.6765999794006348 -0.1624000072479248 -0.5939000248908997 0.7879999876022339
          -0.7483999729156494 0.006500000134110451 0.6632000207901001 -0.5097000002861023 0.37380000948905945 -0.7749000191688538
          -0.9786999821662903 -0.016300000250339508 -0.2046000063419342 -0.7267000079154968 0.257099986076355 -0.6370000243186951
          -0.6430000066757202 0.037300001829862595 -0.7649000287055969 -0.733299970626831 -0.17659999430179596 0.6565999984741211
          -0.4812999963760376 0.14180000126361847 0.8650000095367432 -0.9523000121116638 -0.0674000009894371 0.29750001430511475
          -0.11840000003576279 -0.8740000128746033 0.47130000591278076 -0.5835000276565552 -0.6226000189781189 0.521399974822998
          -0.0348999984562397 -0.9431999921798706 -0.3305000066757202 -0.08250000327825546 0.26829999685287476 -0.9598000049591064
          -0.05939999967813492 0.15389999747276306 -0.986299991607666 0.9337999820709229 0.10339999943971634 -0.3425999879837036
          -0.06889999657869339 0.07959999889135361 -0.9944000244140625 -0.4810999929904938 -0.21150000393390656 -0.8507999777793884
          -0.6345000267028809 -0.75 -0.1868000030517578 -0.8438000082969666 -0.46860000491142273 -0.26159998774528503
          -0.31060001254081726 -0.5609999895095825 -0.767300009727478 0.550000011920929 -0.21279999613761902 0.8076000213623047
          0.46480000019073486 -0.4212000072002411 0.7788000106811523 0.8906999826431274 -0.07039999961853027 0.44909998774528503
          -0.678600013256073 0.5055999755859375 -0.5328999757766724 -0.8152999877929688 0.5177000164985657 -0.25929999351501465
          -0.6524999737739563 0.4237000048160553 0.6283000111579895 0.29030001163482666 -0.9120000004768372 0.2897000014781952
          -0.42410001158714294 0.5767999887466431 -0.698199987411499 -0.6287000179290771 0.5293999910354614 -0.569599986076355
          0.0071000000461936 0.9115999937057495 0.4108999967575073 0.09830000251531601 0.9692000150680542 -0.22579999268054962
          0.8224999904632568 0.09650000184774399 0.5605000257492065 0.9814000129699707 0.1467999964952469 0.12399999797344208
          0.3449000120162964 0.8823999762535095 -0.3199999928474426 -0.8281999826431274 -0.14219999313354492 0.5421000123023987
          0.3061000108718872 -0.014800000004470348 -0.9519000053405762 0.4837000072002411 0.8522999882698059 0.19900000095367432
          -0.013199999928474426 -0.6521999835968018 0.7578999996185303 0.7110999822616577 -0.0835999995470047 -0.6980999708175659
          0.8418999910354614 0.047200001776218414 -0.5375999808311462 0.35589998960494995 -0.2863999903202057 0.8895999789237976
          0.27079999446868896 -0.40709999203681946 0.8723000288009644 0.15060000121593475 0.5411999821662903 -0.8273000121116638
          -0.01730000041425228 0.4717999994754791 -0.881600022315979 0.23919999599456787 -0.9695000052452087 0.05380000174045563
          0.3889999985694885 -0.8639000058174133 -0.3199000060558319 0.7918000221252441 -0.5753999948501587 -0.20489999651908875
          -0.7732999920845032 -0.2858000099658966 0.5659999847412109 -0.8345000147819519 -0.0869000032544136 0.5442000031471252
          0.04769999906420708 -0.0658000037074089 0.9966999888420105 -0.34929999709129333 0.2754000127315521 0.8956000208854675
          -0.23420000076293945 -0.06019999831914902 0.970300018787384 -0.1420000046491623 0.8651000261306763 0.4810999929904938
          0.4943999946117401 -0.20010000467300415 -0.8458999991416931 -0.31439998745918274 0.4027000069618225 -0.8596000075340271
          0.08550000190734863 0.633899986743927 -0.7687000036239624 0.06520000100135803 0.0934000015258789 -0.9934999942779541
          -0.07460000365972519 -0.29420000314712524 0.9527999758720398 -0.6096000075340271 0.6974999904632568 -0.3765999972820282
          -0.8172000050544739 0.5735999941825867 -0.05700000002980232 -0.8339999914169312 0.20469999313354492 -0.5123000144958496
          -0.4429999887943268 0.5968999862670898 -0.6689000129699707 0.03139999881386757 -0.2175000011920929 -0.9754999876022339
          0.6969000101089478 0.6355000138282776 0.33230000734329224 0.5289999842643738 -0.603600025177002 0.5964999794960022
          0.578499972820282 0.7512999773025513 0.3176000118255615 -0.4733999967575073 0.13950000703334808 -0.869700014591217
          -0.10740000009536743 0.31779998540878296 -0.9420999884605408 0.38530001044273376 -0.20080000162124634 -0.9006999731063843
          -0.4690999984741211 -0.4659999907016754 0.7501999735832214 0.13809999823570251 -0.0794999971985817 -0.9872000217437744
          -0.2223999947309494 0.6782000064849854 -0.7003999948501587 -0.061900001019239426 -0.29980000853538513 0.9520000219345093
          -0.4489000141620636 -0.8378000259399414 -0.3107999861240387 0.01510000042617321 -0.9977999925613403 0.06520000100135803
          -0.25859999656677246 0.241799995303154 0.9351999759674072 -0.3619999885559082 0.4075999855995178 -0.8382999897003174
          -0.1137000024318695 -0.5985000133514404 0.7929999828338623 0.2745000123977661 -0.24969999492168427 0.928600013256073
          0.7771000266075134 -0.3961000144481659 0.48910000920295715 -0.46790000796318054 -0.6096000075340271 0.6398000121116638
          <InformationKey name="L2_NORM_RANGE" location="vtkDataArray" length="2">
            <Value index="0">
              0.99993629378
            </Value>
            <Value index="1">
              1.0000637571
            </Value>
          </InformationKey>
        </DataArray>
      </PointData>
      <CellData>
        <DataArray type="Int32" Name="MaterialIds" format="ascii" RangeMin="0" RangeMax="0">
          0 0 0 0 0 0
          0 0 0 0 0 0
          0 0 0 0 0 0
          0 0 0 0 0 0
          0 0 0 0 0 0
          0 0 0 0 0 0
          0 0 0 0 0 0
          0 0 0 0 0 0
          0 0 0 0 0 0
          0 0 0 0 0 0
          0 0 0 0 0 0
          0 0 0 0 0 0
          0 0 0 0 0 0
          0 0 0 0 0 0
          0 0 0 0 0 0
          0 0 0 0 0 0
          0 0 0 0 0 0
          0 0 0 0 0 0
          0 0 0 0 0 0
          0 0 0 0 0 0
          0 0 0 0 0 0
          0 0 0 0 0 0
          0 0 0 0 0 0
          0 0 0 0 0 0
          0 0 0 0 0 0
          0 0 0 0 0 0
          0 0 0 0 0 0
          0 0 0 0 0 0
          0 0 0 0 0 0
          0 0 0 0 0 0
          0 0 0 0 0 0
          0 0 0 0 0 0
          0 0 0 0 0 0
          0 0 0 0 0 0
          0 0 0 0 0 0
          0 0 0 0 0 0
          0 0 0 0 0 0
          0 0 0 0 0 0
          0 0 0 0 0 0
          0 0 0 0 0 0
          0 0 0 0 0 0
          0 0 0 0 0 0
          0 0 0 0 0 0
          0 0 0 0 0 0
          0 0 0 0 0 0
          0 0 0 0 0 0
          0 0 0 0 0 0
          0 0 0 0 0 0
          0 0 0 0 0 0
          0 0 0 0 0 0
          0 0 0 0 0 0
          0 0 0 0 0 0
          0 0 0 0 0 0
          0 0 0 0 0 0
          0 0 0 0 0 0
          0 0 0 0 0 0
          0 0 0 0 0 0
          0 0 0 0 0 0
          0 0 0 0 0 0
          0 0 0 0 0 0
          0 0 0 0 0 0
          0 0 0 0 0 0
          0 0 0 0 0 0
          0 0 0 0 0 0
          0 0 0 0 0 0
          0 0 0 0 0 0
          0 0 0 0 0 0
          0 0 0 0 0 0
          0 0 0 0 0 0
          0 0 0 0 0 0
          0 0 0 0 0 0
          0 0 0 0 0 0
          0 0 0 0 0 0
          0 0 0 0 0 0
          0 0 0 0 0 0
          0 0 0 0 0 0
          0 0 0 0 0 0
          0 0 0 0 0 0
          0 0 0 0 0 0
          0 0 0 0 0 0
          0 0 0 0 0 0
          0 0 0 0 0 0
          0 0 0 0 0 0
          0 0 0 0 0 0
          0 0 0 0 0 0
          0 0 0 0 0 0
          0 0 0 0 0 0
          0 0 0 0 0 0
          0 0 0 0 0 0
          0 0 0 0 0 0
          0 0 0 0 0 0
          0 0 0 0 0 0
          0 0 0 0 0 0
          0 0 0 0 0 0
          0 0 0 0 0 0
          0 0 0 0 0 0
          0 0 0 0 0 0
          0 0 0 0 0 0
          0 0 0 0 0 0
          0 0 0 0 0 0
          0 0 0 0 0 0
          0 0 0 0 0 0
          0 0 0 0
        </DataArray>
        <DataArray type="Float32" Name="GroupIds" format="ascii" RangeMin="0" RangeMax="0">
          0 0 0 0 0 0
          0 0 0 0 0 0
          0 0 0 0 0 0
          0 0 0 0 0 0
          0 0 0 0 0 0
          0 0 0 0 0 0
          0 0 0 0 0 0
          0 0 0 0 0 0
          0 0 0 0 0 0
          0 0 0 0 0 0
          0 0 0 0 0 0
          0 0 0 0 0 0
          0 0 0 0 0 0
          0 0 0 0 0 0
          0 0 0 0 0 0
          0 0 0 0 0 0
          0 0 0 0 0 0
          0 0 0 0 0 0
          0 0 0 0 0 0
          0 0 0 0 0 0
          0 0 0 0 0 0
          0 0 0 0 0 0
          0 0 0 0 0 0
          0 0 0 0 0 0
          0 0 0 0 0 0
          0 0 0 0 0 0
          0 0 0 0 0 0
          0 0 0 0 0 0
          0 0 0 0 0 0
          0 0 0 0 0 0
          0 0 0 0 0 0
          0 0 0 0 0 0
          0 0 0 0 0 0
          0 0 0 0 0 0
          0 0 0 0 0 0
          0 0 0 0 0 0
          0 0 0 0 0 0
          0 0 0 0 0 0
          0 0 0 0 0 0
          0 0 0 0 0 0
          0 0 0 0 0 0
          0 0 0 0 0 0
          0 0 0 0 0 0
          0 0 0 0 0 0
          0 0 0 0 0 0
          0 0 0 0 0 0
          0 0 0 0 0 0
          0 0 0 0 0 0
          0 0 0 0 0 0
          0 0 0 0 0 0
          0 0 0 0 0 0
          0 0 0 0 0 0
          0 0 0 0 0 0
          0 0 0 0 0 0
          0 0 0 0 0 0
          0 0 0 0 0 0
          0 0 0 0 0 0
          0 0 0 0 0 0
          0 0 0 0 0 0
          0 0 0 0 0 0
          0 0 0 0 0 0
          0 0 0 0 0 0
          0 0 0 0 0 0
          0 0 0 0 0 0
          0 0 0 0 0 0
          0 0 0 0 0 0
          0 0 0 0 0 0
          0 0 0 0 0 0
          0 0 0 0 0 0
          0 0 0 0 0 0
          0 0 0 0 0 0
          0 0 0 0 0 0
          0 0 0 0 0 0
          0 0 0 0 0 0
          0 0 0 0 0 0
          0 0 0 0 0 0
          0 0 0 0 0 0
          0 0 0 0 0 0
          0 0 0 0 0 0
          0 0 0 0 0 0
          0 0 0 0 0 0
          0 0 0 0 0 0
          0 0 0 0 0 0
          0 0 0 0 0 0
          0 0 0 0 0 0
          0 0 0 0 0 0
          0 0 0 0 0 0
          0 0 0 0 0 0
          0 0 0 0 0 0
          0 0 0 0 0 0
          0 0 0 0 0 0
          0 0 0 0 0 0
          0 0 0 0 0 0
          0 0 0 0 0 0
          0 0 0 0 0 0
          0 0 0 0 0 0
          0 0 0 0 0 0
          0 0 0 0 0 0
          0 0 0 0 0 0
          0 0 0 0 0 0
          0 0 0 0 0 0
          0 0 0 0 0 0
          0 0 0 0
        </DataArray>
      </CellData>
      <Points>
        <DataArray type="Float32" Name="Points" NumberOfComponents="3" format="ascii" RangeMin="24.014413843382805" RangeMax="29.886601689496597">
          -27.796199798583984 -2.753499984741211 -5.655900001525879 -28.768400192260742 -3.464200019836426 -5.856800079345703
          -28.028799057006836 -2.3433001041412354 -5.525899887084961 -27.873600006103516 -1.7949999570846558 -4.023099899291992
          -27.639299392700195 -1.0750000476837158 -3.696899890899658 -28.269100189208984 -0.9289000034332275 -3.6796998977661133
          -24.54439926147461 -1.5277999639511108 -4.237800121307373 -25.093399047851562 -0.9289000034332275 -4.903900146484375
          -24.705900192260742 -0.8507999777793884 -4.692299842834473 -25.1294002532959 -0.7976999878883362 -2.2153000831604004
          -24.8710994720459 -0.7944999933242798 -2.0302999019622803 -25.002899169921875 0.1817999929189682 -2.3108999729156494
          -27.085100173950195 -2.3622000217437744 -4.530600070953369 -26.333900451660156 -1.968400001525879 -4.548099994659424
          -26.483600616455078 -1.5403000116348267 -4.320099830627441 -25.254100799560547 0.3903999924659729 -5.006400108337402
          -25.09980010986328 0.8199999928474426 -4.656199932098389 -24.88170051574707 0.4397999942302704 -4.808599948883057
          -25.78529930114746 -0.9416000247001648 -3.7892000675201416 -25.59119987487793 -1.8176000118255615 -3.5220999717712402
          -25.476699829101562 -1.924299955368042 -2.9856998920440674 -26.749099731445312 0.19740000367164612 -4.427199840545654
          -26.682199478149414 -0.022199999541044235 -4.685200214385986 -27.1018009185791 0.19259999692440033 -4.528600215911865
          -26.792999267578125 -3.9521000385284424 -5.3694000244140625 -27.652299880981445 -3.741300106048584 -5.625400066375732
          -26.878299713134766 -3.4042999744415283 -5.532800197601318 -26.553199768066406 -2.4976999759674072 -4.650199890136719
          -26.956499099731445 -2.5922999382019043 -4.636300086975098 -26.546199798583984 -3.1373000144958496 -4.444499969482422
          -27.622699737548828 -0.2838999927043915 -3.4974000453948975 -27.697500228881836 0.11349999904632568 -3.524399995803833
          -28.01110076904297 -0.319599986076355 -3.53629994392395 -28.751699447631836 -2.9858999252319336 -5.6168999671936035
          -28.742799758911133 -1.8184000253677368 -5.0345001220703125 -28.10930061340332 -2.0218000411987305 -5.386499881744385
          -24.716899871826172 0.6050000190734863 -4.479899883270264 -24.600799560546875 -0.2443999946117401 -2.104599952697754
          -24.057100296020508 -0.351500004529953 -2.263700008392334 -24.63909912109375 0.28929999470710754 -2.2054998874664307
          -25.427000045776367 1.169100046157837 -3.838399887084961 -25.55900001525879 0.9889000058174133 -3.5027999877929688
          -25.187299728393555 1.1966999769210815 -3.638200044631958 -26.0137996673584 -0.21330000460147858 -4.717800140380859
          -25.768800735473633 0.15559999644756317 -4.906899929046631 -25.79800033569336 -0.20810000598430634 -5.013299942016602
          -26.352399826049805 -1.4358999729156494 -5.428100109100342 -26.75909996032715 -1.9788999557495117 -5.485599994659424
          -26.793699264526367 -1.4840999841690063 -5.475399971008301 -24.15290069580078 -2.0708000659942627 -2.4581000804901123
          -24.062599182128906 -2.0281999111175537 -2.880500078201294 -23.859399795532227 -1.4160000085830688 -2.723099946975708
          -25.33289909362793 -2.305000066757202 -3.069200038909912 -25.065099716186523 -2.5543999671936035 -3.0374999046325684
          -25.221200942993164 -2.2528998851776123 -2.732100009918213 -27.46190071105957 0.05660000070929527 -4.71750020980835
          -28.46649932861328 0.06620000302791595 -4.247200012207031 -28.781099319458008 -0.09399999678134918 -3.994999885559082
          -28.211599349975586 0.25040000677108765 -4.179900169372559 -28.91710090637207 -2.742300033569336 -4.91349983215332
          -29.271299362182617 -2.2704999446868896 -4.666200160980225 -29.08139991760254 -2.6182000637054443 -5.001999855041504