<?xml version="1.0"?>
<VTKFile type="PolyData" version="0.1" byte_order="LittleEndian" header_type="UInt32" compressor="vtkZLibDataCompressor">
  <PolyData>
    <FieldData>
      <Array type="String" Name="MaterialNames" NumberOfTuples="1" format="ascii">
        109 97 116 101 114 105 97 108 95 48 0
      </Array>
      <Array type="String" Name="MaterialLibraries" NumberOfTuples="1" format="ascii">
        109 97 116 101 114 105 97 108 46 109 116 108 0
      </Array>
    </FieldData>
    <Piece NumberOfPoints="3064" NumberOfVerts="0" NumberOfLines="0" NumberOfStrips="0" NumberOfPolys="6016">
      <PointData Normals="Normals">
        <DataArray type="Float32" Name="Normals" NumberOfComponents="3" format="ascii" RangeMin="0.9999286957123583" RangeMax="1.0000814433133232">
          0.6682999730110168 -0.6011999845504761 -0.43810001015663147 0.7150999903678894 -0.6132000088691711 -0.33559998869895935
          0.9086999893188477 -0.41370001435279846 0.056699998676776886 0.1590999960899353 -0.6514000296592712 -0.7419000267982483
          0.021299999207258224 -0.5600000023841858 -0.8281999826431274 -0.2513999938964844 -0.37380000948905945 -0.892799973487854
          0.8138999938964844 -0.5806999802589417 -0.017000000923871994 0.9107000231742859 -0.31279999017715454 0.26969999074935913
          0.35749998688697815 -0.8503999710083008 -0.38609999418258667 -0.3747999966144562 -0.5278000235557556 -0.7621999979019165
          -0.28780001401901245 -0.7429999709129333 -0.604200005531311 -0.631600022315979 -0.4235000014305115 -0.649399995803833
          0.8122000098228455 -0.517300009727478 0.2696000039577484 0.7289000153541565 -0.5796999931335449 0.36419999599456787
          0.5008000135421753 -0.8651000261306763 0.02710000053048134 -0.1477999985218048 -0.8906000256538391 -0.4300999939441681
          -0.5461000204086304 -0.5572999715805054 -0.6255000233650208 0.5939000248908997 -0.7373999953269958 0.32179999351501465
          0.6234999895095825 -0.7196999788284302 0.305400013923645 0.18170000612735748 -0.96670001745224 -0.18050000071525574
          -0.35109999775886536 -0.7389000058174133 -0.5751000046730042 0.37540000677108765 -0.9093000292778015 0.1793999969959259
          0.6107000112533569 -0.6478000283241272 0.4553000032901764 -0.3208000063896179 -0.8148999810218811 -0.482699990272522
          -0.05530000105500221 -0.9865999817848206 -0.15330000221729279 -0.538100004196167 -0.7276999950408936 -0.4253000020980835
          0.4609000086784363 -0.7950000166893005 0.39430001378059387 -0.07209999859333038 -0.9969000220298767 -0.030899999663233757
          0.7508999705314636 -0.3921999931335449 -0.5313000082969666 0.7653999924659729 -0.21459999680519104 -0.6067000031471252
          0.97079998254776 -0.17520000040531158 -0.1639000028371811 0.2786000072956085 -0.5156000256538391 -0.8102999925613403
          0.29840001463890076 -0.3021000027656555 -0.9053999781608582 -0.17149999737739563 -0.4645000100135803 -0.8687999844551086
          -0.14830000698566437 -0.3605000078678131 -0.9208999872207642 0.8540999889373779 -0.5175999999046326 0.052000001072883606
          0.9449999928474426 -0.18880000710487366 0.2671000063419342 0.5011000037193298 -0.7864000201225281 -0.3612000048160553
          0.007400000002235174 -0.7235999703407288 -0.6901999711990356 -0.3294999897480011 -0.3862999975681305 -0.8615000247955322
          -0.2605000138282776 -0.48089998960494995 -0.8371999859809875 0.7961000204086304 -0.31150001287460327 0.5188999772071838
          0.6362000107765198 -0.7555999755859375 0.1559000015258789 0.28760001063346863 -0.9003999829292297 -0.3262999951839447
          -0.04470000043511391 -0.6812999844551086 -0.7305999994277954 -0.257999986410141 -0.35899999737739563 -0.8970000147819519
          -0.1664000004529953 -0.4320000112056732 -0.8863999843597412 -0.15960000455379486 -0.34049999713897705 -0.9265999794006348
          0.7156000137329102 -0.24860000610351562 0.6528000235557556 0.6872000098228455 -0.5794000029563904 0.43810001015663147
          0.5169000029563904 -0.847100019454956 0.12380000203847885 0.2838999927043915 -0.883400022983551 -0.37290000915527344
          0.0414000004529953 -0.6967999935150146 -0.7160999774932861 -0.15839999914169312 -0.35109999775886536 -0.9229000210762024
          -0.1160999983549118 -0.49399998784065247 -0.8616999983787537 -0.19470000267028809 -0.37689998745918274 -0.9056000113487244
          0.6534000039100647 -0.3571000099182129 0.6675000190734863 0.5792999863624573 -0.2987000048160553 0.758400022983551
          0.6011000275611877 -0.6080999970436096 0.5185999870300293 0.3222000002861023 -0.9003999829292297 -0.2922999858856201
          0.06520000100135803 -0.7781999707221985 -0.6247000098228455 -0.24250000715255737 -0.38499999046325684 -0.890500009059906
          -0.1720000058412552 -0.565500020980835 -0.8065999746322632 -0.31310001015663147 -0.4189999997615814 -0.8522999882698059
          0.5830000042915344 -0.3824000060558319 0.7168999910354614 0.63919997215271 -0.32429999113082886 0.6973000168800354
          0.6335999965667725 -0.5999000072479248 0.4884999990463257 0.5184000134468079 -0.8500999808311462 0.09300000220537186
          0.2833999991416931 -0.9258999824523926 -0.2498999983072281 0.03269999846816063 -0.8424999713897705 -0.5376999974250793
          -0.3824999928474426 -0.48080000281333923 -0.7889999747276306 -0.22519999742507935 -0.6710000038146973 -0.7063999772071838
          0.7120000123977661 -0.3788999915122986 0.5911999940872192 0.7645999789237976 -0.35749998688697815 0.5364000201225281
          0.6434000134468079 -0.6955000162124634 0.3199000060558319 0.3959999978542328 -0.9158999919891357 0.06589999794960022
          0.1762000024318695 -0.972000002861023 -0.15549999475479126 -0.12700000405311584 -0.9104999899864197 -0.3935999870300293
          -0.4503999948501587 -0.7265999913215637 -0.5187000036239624 -0.6315000057220459 -0.5436999797821045 -0.5527999997138977
          0.6033999919891357 -0.5680000185966492 0.5598000288009644 0.6168000102043152 -0.25119999051094055 0.7458999752998352
          0.39640000462532043 -0.819100022315979 0.4146000146865845 0.20250000059604645 -0.9247999787330627 0.3222000002861023
          -0.04500000178813934 -0.9983999729156494 0.033399999141693115 -0.4052000045776367 -0.9110999703407288 -0.07599999755620956
          -0.742900013923645 -0.63919997215271 -0.1987999975681305 0.38119998574256897 -0.439300000667572 0.8134999871253967
          0.21879999339580536 -0.6104999780654907 0.7612000107765198 0.12720000743865967 -0.6388000249862671 0.7588000297546387
          -0.10849999636411667 -0.5996000170707703 0.792900025844574 -0.04050000011920929 -0.8780999779701233 0.47679999470710754
          -0.2711000144481659 -0.8379999995231628 0.47360000014305115 -0.6230999827384949 -0.7681999802589417 0.14659999310970306
          0.6802999973297119 -0.4343999922275543 -0.590399980545044 0.579200029373169 -0.29420000314712524 -0.7602999806404114
          0.9225000143051147 -0.3337000012397766 -0.193900004029274 0.1995999962091446 -0.5041999816894531 -0.8402000069618225
          -0.0010000000474974513 -0.19370000064373016 -0.9811000227928162 -0.37599998712539673 -0.3395000100135803 -0.8622000217437744
          -0.38420000672340393 -0.14839999377727509 -0.911300003528595 0.8260999917984009 -0.5633999705314636 -0.013899999670684338
          0.8809000253677368 -0.3986000120639801 0.25519999861717224 0.5609999895095825 -0.722599983215332 -0.40389999747276306
          -0.17880000174045563 -0.6233999729156494 -0.7612000107765198 -0.559499979019165 -0.25099998712539673 -0.789900004863739
          0.8492000102996826 -0.4837000072002411 0.21199999749660492 0.8273000121116638 -0.3767000138759613 0.41670000553131104
          -0.5368000268936157 -0.2883000075817108 -0.792900025844574 -0.49570000171661377 -0.24459999799728394 -0.8334000110626221
          -0.6439999938011169 -0.21150000393390656 -0.7351999878883362 0.8596000075340271 -0.3702999949455261 0.3521000146865845
          0.8845999836921692 -0.2712000012397766 0.37929999828338623 -0.6521000266075134 -0.2784999907016754 -0.7050999999046326
          0.8169000148773193 -0.40689998865127563 0.40880000591278076 0.8795999884605408 -0.23960000276565552 0.41110000014305115
          -0.5746999979019165 -0.3240000009536743 -0.7515000104904175 -0.5601000189781189 -0.47269999980926514 -0.680400013923645
          -0.6062999963760376 -0.29980000853538513 -0.7365000247955322 0.782800018787384 -0.39959999918937683 0.47699999809265137
          0.8108000159263611 -0.22990000247955322 0.5382000207901001 0.7009999752044678 -0.5708000063896179 0.42750000953674316
          -0.5332000255584717 -0.5960000157356262 -0.6004999876022339 -0.5925999879837036 -0.45649999380111694 -0.6636999845504761
          0.7236999869346619 -0.33730000257492065 0.6021000146865845 0.7297999858856201 -0.4018999934196472 0.5530999898910522
          0.6583999991416931 -0.5360000133514404 0.5284000039100647 -0.5202000141143799 -0.593500018119812 -0.6141999959945679
          0.605400025844574 -0.7300000190734863 0.3172000050544739 0.7734000086784363 -0.3411000072956085 0.5343000292778015
          -0.10119999945163727 -0.9908000230789185 -0.08990000188350677 -0.39719998836517334 -0.7867000102996826 -0.4726000130176544
          -0.48100000619888306 -0.64410001039505 -0.5947999954223633 0.614300012588501 -0.6237999796867371 0.4832000136375427
          0.6729000210762024 -0.3431999981403351 0.6553000211715698 0.20360000431537628 -0.9258999824523926 0.3181999921798706
          -0.21400000154972076 -0.9753000140190125 0.05400000140070915 -0.38109999895095825 -0.8658000230789185 -0.32440000772476196
          0.40549999475479126 -0.612500011920929 0.6784999966621399 0.17800000309944153 -0.8220000267028809 0.5410000085830688
          -0.14659999310970306 -0.9818000197410583 0.12060000002384186 0.6722000241279602 -0.22169999778270721 -0.7063999772071838
          0.6729999780654907 -0.4156999886035919 -0.6118000149726868 0.9240000247955322 -0.27140000462532043 -0.2694000005722046
          0.29980000853538513 -0.35670000314712524 -0.8848000168800354 -0.043699998408555984 -0.31470000743865967 -0.948199987411499
          -0.07509999722242355 -0.3084999918937683 -0.9483000040054321 -0.2451999932527542 -0.3100999891757965 -0.9185000061988831
          0.9672999978065491 -0.13860000669956207 0.21250000596046448 -0.3287000060081482 -0.3677999973297119 -0.8697999715805054
          -0.3314000070095062 -0.3425000011920929 -0.8791999816894531 -0.36469998955726624 -0.3564999997615814 -0.8601999878883362
          0.8702999949455261 -0.06310000270605087 0.48840001225471497 -0.30709999799728394 -0.35089999437332153 -0.8847000002861023
          -0.303600013256073 -0.35740000009536743 -0.8831999897956848 -0.2151000052690506 -0.3368000090122223 -0.916700005531311
          0.718999981880188 -0.04529999941587448 0.6935999989509583 -0.15410000085830688 -0.3203999996185303 -0.9347000122070312
          -0.17589999735355377 -0.3102000057697296 -0.9341999888420105 -0.21160000562667847 -0.3188000023365021 -0.9239000082015991
          0.7106999754905701 -0.07289999723434448 0.6996999979019165 0.6367999911308289 -0.010200000368058681 0.7709000110626221
          -0.22110000252723694 -0.33059999346733093 -0.9175000190734863 -0.3147999942302704 -0.3659000098705292 -0.8758000135421753
          -0.28619998693466187 -0.3443000018596649 -0.8942000269889832 -0.3375000059604645 -0.3522999882698059 -0.8729000091552734
          0.6082000136375427 -0.12319999933242798 0.7842000126838684 0.5885999798774719 -0.07769999653100967 0.8047000169754028
          -0.4165000021457672 -0.3865000009536743 -0.8228999972343445 0.5892000198364258 -0.1973000019788742 0.7835000157356262
          0.6398000121116638 -0.14159999787807465 0.7554000020027161 -0.49970000982284546 -0.43630000948905945 -0.7483000159263611
          -0.5178999900817871 -0.38429999351501465 -0.76419997215271 -0.6599000096321106 -0.4108000099658966 -0.6291000247001648
          0.6894000172615051 -0.17309999465942383 0.7034000158309937 -0.7907999753952026 -0.47929999232292175 -0.3806999921798706
          0.5218999981880188 -0.052000001072883606 0.8514000177383423 -0.8669000267982483 -0.4982999861240387 -0.008200000040233135
          0.28380000591278076 -0.12399999797344208 0.9508000016212463 0.1696999967098236 -0.18479999899864197 0.9679999947547913
          0.11159999668598175 -0.4174000024795532 0.9018999934196472 0.11800000071525574 -0.11349999904632568 0.9865000247955322
          -0.51910001039505 -0.656499981880188 0.5472999811172485 -0.8008000254631042 -0.5411999821662903 0.2565000057220459
          -0.015799999237060547 -0.2777999937534332 0.9605000019073486 -0.15479999780654907 -0.33390000462532043 0.9297999739646912
          -0.5302000045776367 -0.4966999888420105 0.6870999932289124 0.7720000147819519 -0.3513999879360199 -0.529699981212616
          0.72079998254776 -0.5023999810218811 -0.47749999165534973 0.8964999914169312 -0.4077000021934509 -0.17329999804496765
          0.21080000698566437 -0.2921000123023987 -0.9329000115394592 -0.10339999943971634 -0.09809999912977219 -0.989799976348877
          -0.4293999969959259 -0.04800000041723251 -0.9017999768257141 0.9230999946594238 -0.3382999897003174 -0.1826000064611435
          0.9351999759674072 -0.32359999418258667 0.14390000700950623 -0.522599995136261 -0.07919999957084656 -0.8489000201225281
          0.9097999930381775 -0.361299991607666 0.20430000126361847 0.8801000118255615 -0.28189998865127563 0.38199999928474426
          -0.6103000044822693 -0.08969999849796295 -0.7871000170707703 0.7820000052452087 -0.35989999771118164 0.5088000297546387
          -0.623199999332428 -0.13130000233650208 -0.7710000276565552 -0.6323000192642212 -0.1581999957561493 -0.758400022983551
          0.8374999761581421 -0.29280000925064087 0.46140000224113464 0.8133000135421753 -0.2515999972820282 0.5246999859809875
          -0.6082000136375427 -0.21559999883174896 -0.7638999819755554 0.8468000292778015 -0.21549999713897705 0.4864000082015991
          -0.5601000189781189 -0.21209999918937683 -0.8008000254631042 -0.5547999739646912 -0.2718000113964081 -0.7864000201225281
          0.7689999938011169 -0.24449999630451202 0.5906999707221985 -0.5167999863624573 -0.3244999945163727 -0.7922000288963318
          -0.5519000291824341 -0.436599999666214 -0.7105000019073486 -0.5558000206947327 -0.3109999895095825 -0.7710000276565552
          0.7123000025749207 -0.23649999499320984 0.6608999967575073 -0.5274999737739563 -0.39980000257492065 -0.7495999932289124
          0.7753000259399414 -0.21870000660419464 0.5924999713897705 0.7515000104904175 -0.20669999718666077 0.6265000104904175
          -0.2867000102996826 -0.6467000246047974 -0.7067999839782715 -0.4277999997138977 -0.46230000257492065 -0.7767000198364258
          -0.2856000065803528 -0.4408999979496002 -0.8508999943733215 0.738099992275238 -0.21819999814033508 0.6384999752044678
          0.6976000070571899 -0.23690000176429749 0.6761999726295471 -0.026399999856948853 -0.9157999753952026 -0.40070000290870667
          -0.20559999346733093 -0.5001000165939331 -0.8411999940872192 -0.03840000182390213 -0.6121000051498413 -0.789900004863739
          -0.11429999768733978 -0.5006999969482422 -0.8579999804496765 0.5303000211715698 -0.43320000171661377 0.7286999821662903
          0.36809998750686646 -0.6875 0.6259999871253967 0.17550000548362732 -0.9485999941825867 0.26350000500679016
          0.3580000102519989 -0.6650000214576721 -0.6553999781608582 -0.12330000102519989 -0.44749999046325684 -0.885699987411499
          0.046300001442432404 -0.42649999260902405 -0.9032999873161316 -0.14429999887943268 -0.31869998574256897 -0.9368000030517578
          -0.22390000522136688 -0.3675999939441681 -0.9025999903678894 -0.2587999999523163 -0.3190999925136566 -0.9117000102996826
          0.5426999926567078 -0.4925000071525574 0.6802999973297119 0.5210000276565552 -0.6879000067710876 0.5054000020027161
          0.6499000191688538 -0.7567999958992004 -0.06949999928474426 -0.31949999928474426 -0.3151000142097473 -0.8935999870300293
          -0.29580000042915344 -0.3059000074863434 -0.9049000144004822 -0.34529998898506165 -0.3107999861240387 -0.8855000138282776
          0.6207000017166138 -0.5526999831199646 0.5561000108718872 0.7336999773979187 -0.3856000006198883 0.5594000220298767
          0.838699996471405 -0.45809999108314514 0.29440000653266907 -0.3578999936580658 -0.35040000081062317 -0.8654999732971191
          -0.3070000112056732 -0.32100000977516174 -0.8959000110626221 0.7738999724388123 -0.14380000531673431 0.6166999936103821
          -0.1867000013589859 -0.32030001282691956 -0.9286999702453613 -0.23119999468326569 -0.3086000084877014 -0.9226999878883362
          -0.20669999718666077 -0.30799999833106995 -0.9286999702453613 0.5680999755859375 -0.06689999997615814 0.8202000260353088
          -0.20020000636577606 -0.30820000171661377 -0.9300000071525574 -0.26759999990463257 -0.32089999318122864 -0.9085000157356262
          -0.2793999910354614 -0.3402000069618225 -0.8978999853134155 0.5386000275611877 0.07119999825954437 0.8396000266075134
          0.5600000023841858 0.19099999964237213 0.8062000274658203 -0.4327999949455261 -0.36010000109672546 -0.8264999985694885
          -0.4138000011444092 -0.35510000586509705 -0.8382999897003174 0.5515000224113464 0.1396999955177307 0.8223999738693237
          0.5742999911308289 0.16930000483989716 0.8009999990463257 -0.5424000024795532 -0.38100001215934753 -0.7487000226974487
          0.6104000210762024 0.05730000138282776 0.7900000214576721 -0.7494000196456909 -0.4334999918937683 -0.5005000233650208
          -0.6432999968528748 -0.41269999742507935 -0.6449000239372253 -0.7476000189781189 -0.41780000925064087 -0.5162000060081482
          0.5584999918937683 -0.08100000023841858 0.8255000114440918 0.5914999842643738 -0.0210999995470047 0.8059999942779541
          -0.8375999927520752 -0.4674000144004822 -0.2827000021934509 -0.8483999967575073 -0.4359000027179718 -0.3003999888896942
          0.36309999227523804 -0.08889999985694885 0.9275000095367432 0.22509999573230743 0.06610000133514404 0.972100019454956
          0.18440000712871552 0.028999999165534973 0.9824000000953674 0.045099999755620956 0.15060000121593475 0.9876000285148621
          -0.8902000188827515 -0.4551999866962433 0.01850000023841858 0.04969999939203262 0.09239999949932098 0.9944999814033508
          0.10809999704360962 0.07020000368356705 0.9916999936103821 0.020099999383091927 -0.03889999911189079 0.9990000128746033
          -0.07880000025033951 -0.05420000106096268 0.9954000115394592 -0.7978000044822693 -0.382099986076355 0.46639999747276306
          -0.8367000222206116 -0.39010000228881836 0.38440001010894775 -0.4404999911785126 -0.22280000150203705 0.869700014591217
          0.5145999789237976 -0.8532999753952026 -0.08410000056028366 0.5925999879837036 -0.6348000168800354 -0.4959000051021576
          -0.3756999969482422 0.04360000044107437 -0.9257000088691711 -0.14390000700950623 -0.2395000010728836 -0.9602000117301941
          0.776199996471405 -0.6191999912261963 -0.11900000274181366 -0.3479999899864197 -0.003100000089034438 -0.9375
          -0.4731999933719635 0.02410000003874302 -0.8805999755859375 0.8955000042915344 -0.4178999960422516 0.15289999544620514
          -0.5461000204086304 -0.01810000091791153 -0.8374999761581421 -0.5972999930381775 -0.04259999841451645 -0.8008999824523926
          0.8058000206947327 -0.42340001463890076 0.414000004529953 0.8205999732017517 -0.26910001039505005 0.5041000247001648
          -0.6159999966621399 -0.0714000016450882 -0.784500002861023 0.7199000120162964 -0.31929999589920044 0.6162999868392944
          0.7710999846458435 -0.20440000295639038 0.6029999852180481 -0.5740000009536743 -0.0940999984741211 -0.8133999705314636
          0.7013000249862671 -0.2720000147819519 0.6589000225067139 0.8233000040054321 -0.17659999430179596 0.5394999980926514
          -0.5449000000953674 -0.14640000462532043 -0.8256000280380249 -0.51910001039505 -0.18979999423027039 -0.8334000110626221
          0.8543000221252441 -0.21209999918937683 0.47450000047683716 0.8601999878883362 -0.17640000581741333 0.47850000858306885
          -0.5297999978065491 -0.2223999947309494 -0.8184000253677368 -0.5382999777793884 -0.2687000036239624 -0.798799991607666
          -0.5501000285148621 -0.21809999644756317 -0.8061000108718872 0.8528000116348267 -0.24529999494552612 0.460999995470047
          0.7846999764442444 -0.28529998660087585 0.5501999855041504 -0.48190000653266907 -0.2687000036239624 -0.8339999914169312
          0.695900022983551 -0.34119999408721924 0.6319000124931335 0.7182999849319458 -0.34860000014305115 0.6021999716758728
          -0.39410001039505005 -0.31150001287460327 -0.8647000193595886 0.7195000052452087 -0.40049999952316284 0.567300021648407
          0.7059999704360962 -0.3587000072002411 0.6107000112533569 -0.17329999804496765 -0.39309999346733093 -0.902999997138977
          -0.2786000072956085 -0.28839999437332153 -0.916100025177002 -0.18440000712871552 -0.3472000062465668 -0.9194999933242798
          -0.20479999482631683 -0.22519999742507935 -0.9524999856948853 -0.28459998965263367 -0.22859999537467957 -0.9309999942779541
          0.7077999711036682 -0.2671999931335449 0.6539999842643738 0.6949999928474426 -0.2370000034570694 0.6789000034332275
          -0.3418000042438507 -0.25 -0.9059000015258789 -0.2687000036239624 -0.38100001215934753 -0.8847000002861023
          -0.35190001130104065 -0.3070000112056732 -0.8842999935150146 0.6075999736785889 -0.322299987077713 0.7258999943733215
          0.671500027179718 -0.2831999957561493 0.6848000288009644 -0.29600000381469727 -0.30070000886917114 -0.9065999984741211
          -0.3328000009059906 -0.29510000348091125 -0.8956000208854675 -0.337799996137619 -0.2928999960422516 -0.8945000171661377
          0.6884999871253967 -0.3709000051021576 0.6233000159263611 -0.33709999918937683 -0.30149999260902405 -0.8919000029563904
          0.6039000153541565 -0.5127000212669373 0.6103000044822693 0.6399000287055969 -0.513700008392334 0.5715000033378601
          0.6050999760627747 -0.5468000173568726 0.5785999894142151 -0.25780001282691956 -0.274399995803833 -0.9264000058174133
          -0.30559998750686646 -0.2897000014781952 -0.9070000052452087 -0.210999995470047 -0.26669999957084656 -0.9404000043869019
          0.6118000149726868 -0.5333999991416931 0.5841000080108643 0.5347999930381775 -0.36090001463890076 0.7641000151634216
          0.45989999175071716 -0.5424000024795532 0.7031000256538391 -0.1712999939918518 -0.2809000015258789 -0.9442999958992004
          -0.21369999647140503 -0.32519999146461487 -0.9211999773979187 -0.21480000019073486 -0.35350000858306885 -0.9103999733924866
          0.22110000252723694 -0.5006999969482422 0.836899995803833 0.2281000018119812 -0.18170000612735748 0.9564999938011169
          0.26579999923706055 0.052799999713897705 0.9625999927520752 -0.3398999869823456 -0.3495999872684479 -0.8730000257492065
          -0.39010000228881836 -0.40130001306533813 -0.8287000060081482 0.43479999899864197 0.21709999442100525 0.8740000128746033
          0.43059998750686646 0.28349998593330383 0.8568999767303467 0.5006999969482422 0.2768999934196472 0.8202000260353088
          -0.5512999892234802 -0.38429999351501465 -0.7405999898910522 0.5594000220298767 0.3513000011444092 0.7508000135421753
          0.5432000160217285 0.2897000014781952 0.788100004196167 0.5489000082015991 0.3815999925136566 0.7437000274658203
          -0.609499990940094 -0.3497999906539917 -0.7113999724388123 -0.6395000219345093 -0.3917999863624573 -0.6614000201225281
          -0.7109000086784363 -0.37059998512268066 -0.5976999998092651 0.6021999716758728 0.33899998664855957 0.7228000164031982
          -0.847599983215332 -0.3781999945640564 -0.37209999561309814 0.5009999871253967 0.25920000672340393 0.8256999850273132
          -0.9228000044822693 -0.37310001254081726 -0.0957999974489212 0.29350000619888306 -0.008100000210106373 0.9559000134468079
          -0.04320000112056732 0.05180000141263008 0.9976999759674072 0.02630000002682209 0.149399995803833 0.9883999824523926
          0.17000000178813934 0.11540000140666962 0.9786999821662903 0.16910000145435333 0.15080000460147858 0.9739999771118164
          0.259799987077713 0.08820000290870667 0.9616000056266785 -0.8931000232696533 -0.3711000084877014 0.2540999948978424
          0.000699999975040555 -0.029999999329447746 0.9994999766349792 -0.47209998965263367 -0.20499999821186066 0.8574000000953674
          -0.5734000205993652 -0.17080000042915344 0.8012999892234802 -0.7228999733924866 -0.31279999017715454 0.616100013256073
          -0.6601999998092651 0.17509999871253967 -0.730400025844574 -0.4650000035762787 0.17949999868869781 -0.8669000267982483
          -0.3833000063896179 0.17589999735355377 -0.9067000150680542 -0.41440001130104065 0.1062999963760376 -0.9039000272750854
          -0.5267999768257141 0.09549999982118607 -0.8446000218391418 -0.5688999891281128 0.03849999979138374 -0.8215000033378601
          -0.5605999827384949 0.003000000026077032 -0.8281000256538391 0.7835999727249146 -0.17010000348091125 0.5975000262260437
          -0.5188000202178955 -0.09510000050067902 -0.8496000170707703 0.8593999743461609 -0.1046999990940094 0.5005000233650208
          -0.5473999977111816 -0.16380000114440918 -0.8206999897956848 -0.5088000297546387 -0.16050000488758087 -0.84579998254776
          -0.48820000886917114 -0.10159999877214432 -0.8668000102043152 -0.48660001158714294 -0.21879999339580536 -0.84579998254776
          -0.3799000084400177 -0.25540000200271606 -0.8891000151634216 -0.35899999737739563 -0.260699987411499 -0.8962000012397766
          -0.3409000039100647 -0.2791999876499176 -0.8977000117301941 -0.3043999969959259 -0.2736999988555908 -0.9124000072479248
          0.703000009059906 -0.421099990606308 0.573199987411499 -0.30250000953674316 -0.23250000178813934 -0.9243000149726868
          -0.32199999690055847 -0.19539999961853027 -0.9262999892234802 0.6852999925613403 -0.27559998631477356 0.6740999817848206
          -0.3610000014305115 -0.25440001487731934 -0.8971999883651733 -0.328000009059906 -0.23499999940395355 -0.9150000214576721
          -0.3303999900817871 -0.20800000429153442 -0.9205999970436096 -0.33059999346733093 -0.2694999873638153 -0.9043999910354614
          0.6751000285148621 -0.2711000144481659 0.6861000061035156 0.7099000215530396 -0.24779999256134033 0.6592000126838684
          -0.35569998621940613 -0.27630001306533813 -0.892799973487854 -0.32429999113082886 -0.28369998931884766 -0.902400016784668
          0.724399983882904 -0.25119999051094055 0.6420000195503235 0.7592999935150146 -0.22669999301433563 0.6100000143051147
          -0.2720000147819519 -0.2915000021457672 -0.9171000123023987 0.6686999797821045 -0.4767000079154968 0.5705999732017517
          0.7523000240325928 -0.2513999938964844 0.6089000105857849 -0.14149999618530273 -0.2531999945640564 -0.9570000171661377
          -0.20190000534057617 -0.30090001225471497 -0.9319999814033508 -0.07909999787807465 -0.3075000047683716 -0.9483000040054321
          0.6808000206947327 -0.436599999666214 0.588100016117096 0.5152999758720398 -0.5667999982833862 0.642799973487854
          0.5306000113487244 -0.4348999857902527 0.7275000214576721 -0.2870999872684479 -0.4138000011444092 -0.8639000058174133
          -0.23520000278949738 -0.3921000063419342 -0.8892999887466431 -0.1315000057220459 -0.364300012588501 -0.9218999743461609
          -0.39800000190734863 -0.44690001010894775 -0.8011000156402588 0.35089999437332153 -0.5059000253677368 0.7879999876022339
          0.07530000060796738 -0.5920000076293945 0.8023999929428101 -0.026100000366568565 -0.5174000263214111 0.8553000092506409
          0.15729999542236328 -0.29350000619888306 0.9429000020027161 0.37689998745918274 0.0835999995470047 0.9225000143051147
          0.4327000081539154 -0.21209999918937683 0.8762999773025513 -0.5371000170707703 -0.4323999881744385 -0.7242000102996826
          -0.6347000002861023 -0.4668999910354614 -0.6158000230789185 0.4878999888896942 -0.07580000162124634 0.8695999979972839
          0.5182999968528748 0.061000000685453415 0.8529999852180481 -0.723800003528595 -0.36419999599456787 -0.5860999822616577
          0.47839999198913574 0.23260000348091125 0.8468000292778015 0.37599998712539673 0.3822999894618988 0.8440999984741211
          0.4510999917984009 0.05480000004172325 0.8907999992370605 -0.8371999859809875 -0.3346000015735626 -0.4325000047683716
          0.23690000176429749 0.5324000120162964 0.8126999735832214 0.31929999589920044 0.06650000065565109 0.9452999830245972
          0.11339999735355377 0.3434000015258789 0.9322999715805054 0.29919999837875366 -0.11259999871253967 0.9474999904632568
          -0.9266999959945679 -0.31769999861717224 -0.20100000500679016 0.09279999881982803 0.3009999990463257 0.9491000175476074
          -0.09600000083446503 0.32269999384880066 0.9416000247001648 0.3010999858379364 0.007600000128149986 0.9535999894142151
          0.1348000019788742 0.2806999981403351 0.9502999782562256 0.40130001306533813 0.1290999948978424 0.9067999720573425
          -0.942799985408783 -0.3041999936103821 0.1362999975681305 0.35600000619888306 0.0934000015258789 0.9297999739646912
          0.2782000005245209 0.03840000182390213 0.9596999883651733 -0.8503999710083008 -0.27639999985694885 0.44760000705718994
          -0.6545000076293945 -0.21699999272823334 0.7243000268936157 -0.7749999761581421 -0.2567000091075897 0.5774999856948853
          0.07569999992847443 -0.018200000748038292 0.996999979019165 -0.36500000953674316 -0.14920000731945038 0.9190000295639038
          -0.7032999992370605 0.16850000619888306 -0.6905999779701233 -0.6261000037193298 0.2597000002861023 -0.7351999878883362