<?xml version="1.0"?>
<VTKFile type="PolyData" version="0.1" byte_order="LittleEndian" header_type="UInt32" compressor="vtkZLibDataCompressor">
  <PolyData>
    <FieldData>
      <Array type="String" Name="MaterialNames" NumberOfTuples="1" format="ascii">
        109 97 116 101 114 105 97 108 95 48 0
      </Array>
      <Array type="String" Name="MaterialLibraries" NumberOfTuples="1" format="ascii">
        109 97 116 101 114 105 97 108 46 109 116 108 0
      </Array>
    </FieldData>
    <Piece NumberOfPoints="869" NumberOfVerts="0" NumberOfLines="0" NumberOfStrips="0" NumberOfPolys="1659">
      <PointData Normals="Normals">
        <DataArray type="Float32" Name="Normals" NumberOfComponents="3" format="ascii" RangeMin="0.9999271825825673" RangeMax="1.0000670848984894">
          0.2919999957084656 -0.5665000081062317 0.7706000208854675 -0.49950000643730164 -0.337799996137619 0.7976999878883362
          -0.211899995803833 -0.3741999864578247 0.9028000235557556 0.2847999930381775 -0.4790000021457672 0.830299973487854
          -0.044599998742341995 -0.5601000189781189 0.8271999955177307 -0.5446000099182129 -0.45399999618530273 0.7052000164985657
          -0.22709999978542328 -0.3986000120639801 0.8885999917984009 0.1527000069618225 -0.4018999934196472 0.902899980545044
          0.22789999842643738 -0.2849999964237213 0.9309999942779541 0.18690000474452972 -0.1931000053882599 0.9631999731063843
          0.5374000072479248 0.1940000057220459 0.8206999897956848 0.9726999998092651 0.10639999806880951 0.20630000531673431
          -0.7037000060081482 -0.5271000266075134 0.4763999879360199 -0.05999999865889549 -0.4147999882698059 -0.9078999757766724
          -0.5726000070571899 -0.578000009059906 0.5813999772071838 -0.5091999769210815 -0.43619999289512634 0.7419000267982483
          -0.01209999993443489 -0.25459998846054077 0.9670000076293945 0.22020000219345093 -0.23479999601840973 0.9467999935150146
          0.004399999976158142 -0.23800000548362732 0.9713000059127808 0.1151999980211258 0.04190000146627426 0.9925000071525574
          0.7968999743461609 0.03350000083446503 0.6032000184059143 0.909500002861023 -0.35280001163482666 0.2199999988079071
          0.9851999878883362 -0.15520000457763672 -0.07249999791383743 -0.6636000275611877 -0.5586000084877014 0.4977000057697296
          -0.6863999962806702 -0.40790000557899475 0.6019999980926514 0.8924000263214111 -0.4049000144004822 -0.19930000603199005
          -0.5746999979019165 -0.34929999709129333 0.7401000261306763 0.9065999984741211 -0.35850000381469727 0.22259999811649323
          0.22589999437332153 0.03519999980926514 -0.9735000133514404 0.3939000070095062 0.12680000066757202 -0.9103999733924866
          -0.05999999865889549 -0.16019999980926514 -0.9853000044822693 -0.07500000298023224 -0.5626999735832214 -0.8233000040054321
          -0.1251000016927719 -0.38609999418258667 -0.9139000177383423 -0.17170000076293945 -0.4478999972343445 -0.8773999810218811
          -0.678600013256073 0.21379999816417694 -0.7027000188827515 0.44760000705718994 0.16380000114440918 -0.8791000247001648
          0.5552999973297119 0.17409999668598175 -0.8131999969482422 0.6430000066757202 0.181099995970726 -0.7441999912261963
          0.6913999915122986 0.19480000436306 -0.6956999897956848 0.5849999785423279 0.6464999914169312 0.48969998955726624
          -0.2939999997615814 -0.03689999878406525 0.9550999999046326 0.326200008392334 0.16210000216960907 0.9312999844551086
          0.7603999972343445 -0.10130000114440918 0.6414999961853027 0.31610000133514404 -0.5041000247001648 0.8036999702453613
          -0.13459999859333038 -0.4377000033855438 0.8889999985694885 0.7121999859809875 0.14560000598430634 0.6866999864578247
          0.7437999844551086 0.5184999704360962 0.42179998755455017 0.8094000220298767 0.5081999897956848 0.29409998655319214
          -0.6693999767303467 -0.02669999934732914 0.7423999905586243 -0.05900000035762787 -0.06970000267028809 0.9958000183105469
          0.39340001344680786 -0.2994999885559082 0.8691999912261963 0.19850000739097595 -0.5548999905586243 0.8079000115394592
          0.34299999475479126 -0.7418000102043152 0.5763000249862671 0.7883999943733215 -0.6121000051498413 -0.0608999989926815
          0.8859000205993652 0.4377000033855438 0.1534000039100647 -0.7394000291824341 -0.05550000071525574 0.6710000038146973
          0.6635000109672546 -0.6736000180244446 -0.3255999982357025 0.40549999475479126 -0.8741999864578247 -0.2669999897480011
          0.4262000024318695 -0.8998000025749207 -0.09369999915361404 -0.2572999894618988 0.08860000222921371 0.9623000025749207
          -0.37070000171661377 0.052400000393390656 0.927299976348877 0.6534000039100647 -0.7501999735832214 0.10119999945163727
          0.6754000186920166 -0.6047000288963318 0.4221000075340271 0.4065999984741211 -0.6220999956130981 0.6690999865531921
          0.08240000158548355 -0.6452000141143799 0.7595000267028809 -0.043699998408555984 -0.46070000529289246 -0.8865000009536743
          -0.0032999999821186066 -0.5109999775886536 -0.8596000075340271 0.0210999995470047 -0.47200000286102295 -0.8813999891281128
          -0.15970000624656677 -0.4796000123023987 -0.8629000186920166 -0.3896999955177307 -0.3865000009536743 -0.8359000086784363
          -0.37959998846054077 -0.40549999475479126 -0.8314999938011169 -0.534500002861023 -0.2700999975204468 -0.8008000254631042
          -0.5547999739646912 -0.320499986410141 -0.767799973487854 -0.5938000082969666 -0.22110000252723694 -0.7735999822616577
          0.26010000705718994 -0.1428000032901764 -0.9549999833106995 0.07829999923706055 -0.21379999816417694 -0.9736999869346619
          -0.009800000116229057 -0.3668999969959259 -0.9301999807357788 -0.5810999870300293 -0.07989999651908875 -0.8098999857902527
          -0.6488000154495239 0.10480000078678131 -0.7537000179290771 -0.7279000282287598 0.19519999623298645 -0.6572999954223633
          0.49309998750686646 0.018400000408291817 -0.8697999715805054 0.3930000066757202 -0.008700000122189522 -0.9194999933242798
          -0.7368000149726868 0.30979999899864197 -0.6010000109672546 -0.7174999713897705 0.5584999918937683 -0.41620001196861267
          -0.7807000279426575 0.4523000121116638 -0.4311000108718872 0.6958000063896179 0.1868000030517578 -0.6934999823570251
          0.6618000268936157 0.08049999922513962 -0.7452999949455261 -0.7825000286102295 0.5194000005722046 -0.3434000015258789
          -0.8101999759674072 0.552299976348877 -0.19629999995231628 0.7283999919891357 0.0982000008225441 -0.6780999898910522
          0.7107999920845032 0.16339999437332153 -0.6840999722480774 -0.013799999840557575 -0.5898000001907349 0.8073999881744385
          -0.6933000087738037 0.7113999724388123 -0.1151999980211258 -0.7835000157356262 0.5917999744415283 -0.18940000236034393
          0.11140000075101852 -0.5170999765396118 0.8485999703407288 0.2353000044822693 -0.5630000233650208 0.7922000288963318
          0.2305999994277954 -0.335099995136261 0.9135000109672546 0.5727999806404114 0.26589998602867126 0.7753999829292297
          0.7520999908447266 0.6434000134468079 0.14270000159740448 0.460999995470047 0.6589999794960022 0.5942999720573425
          -0.37130001187324524 0.4413999915122986 0.8169000148773193 0.32690000534057617 -0.31869998574256897 0.8896999955177307
          0.6136000156402588 -0.6169999837875366 0.4927000105381012 0.7265999913215637 -0.578499972820282 0.37059998512268066
          0.33379998803138733 -0.8327000141143799 0.44190001487731934 0.2897000014781952 -0.9359999895095825 0.19990000128746033
          -0.911300003528595 0.3472999930381775 -0.22110000252723694 0.6025999784469604 0.7839000225067139 -0.14970000088214874
          0.8513000011444092 0.5227000117301941 0.04479999840259552 -0.6412000060081482 0.37549999356269836 0.6693000197410583
          0.6970000267028809 -0.692799985408783 0.18479999899864197 0.7253000140190125 -0.6873000264167786 0.03970000147819519
          0.44530001282691956 -0.8952000141143799 0.01889999955892563 -0.9207000136375427 0.25540000200271606 -0.29510000348091125
          0.816100001335144 0.41280001401901245 0.4043999910354614 0.17440000176429749 0.5450000166893005 0.8201000094413757
          -0.3682999908924103 0.5049999952316284 0.7806000113487244 -0.17059999704360962 0.46219998598098755 0.870199978351593
          0.5242999792098999 -0.8436999917030334 0.11550000309944153 0.7404999732971191 -0.6686000227928162 0.06750000268220901
          0.4839000105857849 -0.8302000164985657 0.2768999934196472 -0.358599990606308 -0.7490000128746033 0.5570999979972839
          -0.9049000144004822 -0.29010000824928284 0.31139999628067017 0.5324000120162964 -0.8027999997138977 0.26829999685287476
          0.40790000557899475 -0.7591999769210815 0.5072000026702881 0.27079999446868896 -0.8697999715805054 0.4124000072479248
          0.2793000042438507 -0.7821999788284302 0.5569000244140625 0.07429999858140945 -0.756600022315979 0.6496999859809875
          -0.7523999810218811 -0.5167999863624573 0.4083999991416931 0.30230000615119934 -0.7961000204086304 0.5242999792098999
          0.1826999932527542 -0.8442999720573425 0.5037000179290771 -0.042899999767541885 -0.8665000200271606 0.4973999857902527
          -0.44350001215934753 -0.7427999973297119 0.5015000104904175 -0.05220000073313713 -0.5295000076293945 -0.8467000126838684
          -0.07930000126361847 -0.5496000051498413 -0.83160001039505 0.040800001472234726 -0.541700005531311 -0.8396000266075134
          -0.25999999046325684 -0.4652000069618225 -0.8461999893188477 -0.28119999170303345 -0.4999000132083893 -0.819100022315979
          -0.427700012922287 -0.42010000348091125 -0.8004000186920166 0.1808999925851822 -0.42100000381469727 -0.8888999819755554
          0.06109999865293503 -0.498199999332428 -0.8648999929428101 0.1340000033378601 -0.4977000057697296 -0.8568999767303467
          -0.5475000143051147 -0.38359999656677246 -0.7437000274658203 -0.4819999933242798 -0.43050000071525574 -0.7631000280380249
          -0.6783000230789185 -0.19900000095367432 -0.7073000073432922 -0.6804999709129333 -0.3499999940395355 -0.6438000202178955
          -0.7785000205039978 -0.24269999563694 -0.5788000226020813 0.3578999936580658 -0.25839999318122864 -0.8973000049591064
          0.36410000920295715 -0.3450999855995178 -0.8650000095367432 0.382099986076355 -0.39959999918937683 -0.833299994468689
          0.27390000224113464 -0.4027999937534332 -0.8733000159263611 -0.7318000197410583 0.0012000000569969416 -0.6815000176429749
          -0.8460999727249146 0.1607999950647354 -0.5081999897956848 0.474700003862381 -0.1996999979019165 -0.857200026512146
          0.4778999984264374 -0.427700012922287 -0.767300009727478 0.6288999915122986 -0.2825999855995178 -0.7243000268936157
          -0.8176000118255615 0.29670000076293945 -0.4934999942779541 -0.8644999861717224 0.38839998841285706 -0.3188999891281128
          0.7613999843597412 -0.14249999821186066 -0.6324999928474426 -0.8335000276565552 0.4652000069618225 -0.29789999127388
          -0.8335000276565552 0.515500009059906 -0.19859999418258667 0.7659000158309937 -0.10300000011920929 -0.6345999836921692
          0.7360000014305115 0.018400000408291817 -0.6766999959945679 0.05130000039935112 0.5949000120162964 0.8022000193595886
          -0.1509000062942505 0.3034999966621399 0.9408000111579895 0.0364999994635582 0.26350000500679016 0.9639999866485596
          0.4372999966144562 0.24240000545978546 0.8659999966621399 0.4117000102996826 0.5184999704360962 0.7494000196456909
          0.8665000200271606 -0.15410000085830688 0.474700003862381 -0.7754999995231628 0.6100999712944031 -0.1624000072479248
          -0.8420000076293945 0.5149999856948853 -0.1606999933719635 0.1005999967455864 -0.6543999910354614 0.7494000196456909
          0.16529999673366547 -0.7350999712944031 0.6575000286102295 -0.07580000162124634 -0.7626000046730042 0.6424999833106995
          -0.4788999855518341 -0.5918999910354614 0.6482999920845032 -0.2224999964237213 -0.002099999925121665 0.9749000072479248
          0.24169999361038208 0.9477999806404114 0.20810000598430634 -0.11620000004768372 0.882099986076355 0.45649999380111694
          0.7545999884605408 -0.1987999975681305 0.6254000067710876 0.7825999855995178 -0.5814999938011169 0.2224999964237213
          -0.7935000061988831 0.5552999973297119 -0.24899999797344208 -0.8083000183105469 0.5063999891281128 -0.3003000020980835
          0.11990000307559967 -0.6791999936103821 0.7240999937057495 0.33169999718666077 -0.7549999952316284 0.5656999945640564
          0.0714000016450882 -0.8784999847412109 0.4724000096321106 -0.5823000073432922 -0.7135000228881836 0.3896999955177307
          0.5999000072479248 0.7735000252723694 0.20469999313354492 0.1695999950170517 0.904699981212616 0.39079999923706055
          -0.2623000144958496 0.8928999900817871 0.3659000098705292 0.7455000281333923 -0.6531999707221985 0.13269999623298645
          0.757099986076355 -0.6399999856948853 0.13099999725818634 -0.8310999870300293 0.4081000089645386 -0.37779998779296875
          -0.9472000002861023 0.28450000286102295 -0.14790000021457672 0.10289999842643738 -0.843500018119812 0.5271999835968018
          0.7566999793052673 -0.6471999883651733 0.09229999780654907 0.7932000160217285 -0.6085000038146973 0.02449999935925007
          -0.9970999956130981 -0.00989999994635582 0.07509999722242355 0.6022999882698059 -0.6948000192642212 0.39309999346733093
          0.7559000253677368 -0.6233999729156494 0.19990000128746033 -0.9469000101089478 -0.24779999256134033 0.20489999651908875
          0.5791000127792358 -0.7196999788284302 0.382999986410141 0.35910001397132874 -0.7786999940872192 0.5145000219345093
          0.4341999888420105 -0.7565000057220459 0.48899999260902405 0.2565999925136566 -0.7975999712944031 0.5458999872207642
          0.12700000405311584 -0.8282999992370605 0.5457000136375427 -0.257099986076355 -0.766700029373169 0.5882999897003174
          -0.6744999885559082 -0.5135999917984009 0.5303999781608582 0.34689998626708984 -0.7745000123977661 0.5289999842643738
          0.23649999499320984 -0.7876999974250793 0.5687999725341797 0.06440000236034393 -0.7462000250816345 0.6625999808311462
          -0.31520000100135803 -0.6269000172615051 0.7124999761581421 -0.11240000277757645 -0.5210999846458435 -0.8460000157356262
          -0.061000000685453415 -0.49149999022483826 -0.8687000274658203 0.04360000044107437 -0.49939998984336853 -0.8652999997138977
          -0.32919999957084656 -0.49070000648498535 -0.8066999912261963 -0.2996000051498413 -0.48170000314712524 -0.8234999775886536
          -0.41429999470710754 -0.46299999952316284 -0.7835999727249146 0.10930000245571136 -0.5224999785423279 -0.8456000089645386
          0.18060000240802765 -0.484499990940094 -0.85589998960495 0.22380000352859497 -0.47519999742507935 -0.8508999943733215
          -0.43320000171661377 -0.460099995136261 -0.7749999761581421 -0.5806000232696533 -0.4408000111579895 -0.6845999956130981
          -0.5098999738693237 -0.43130001425743103 -0.7443000078201294 -0.7835999727249146 -0.375 -0.49540001153945923
          -0.6492000222206116 -0.41659998893737793 -0.6363000273704529 0.28290000557899475 -0.3953999876976013 -0.8737999796867371
          0.24220000207424164 -0.4449000060558319 -0.8622000217437744 -0.9083999991416931 -0.21899999678134918 -0.3562000095844269
          0.35530000925064087 -0.45170000195503235 -0.8183000087738037 0.3276999890804291 -0.43720000982284546 -0.8374999761581421
          0.5358999967575073 -0.46299999952316284 -0.7059999704360962 -0.8830000162124634 -0.04780000075697899 -0.46700000762939453
          -0.948199987411499 0.13300000131130219 -0.28839999437332153 0.7365999817848206 -0.40070000290870667 -0.5449000000953674
          -0.8884000182151794 0.29760000109672546 -0.34950000047683716 -0.8903999924659729 0.3878999948501587 -0.23829999566078186
          0.8208000063896179 -0.3239000141620636 -0.47049999237060547 -0.8547000288963318 0.46959999203681946 -0.22139999270439148
          -0.8866999745368958 0.4440000057220459 -0.12890000641345978 0.7968999743461609 -0.25360000133514404 -0.54830002784729
          0.83160001039505 -0.1589999943971634 -0.5321000218391418 -0.58160001039505 0.15209999680519104 0.7990999817848206
          -0.02810000069439411 0.454800009727478 0.8902000188827515 0.7307999730110168 -0.08219999819993973 0.6776000261306763
          0.9065999984741211 -0.40799999237060547 0.10769999772310257 -0.8568000197410583 0.4997999966144562 -0.1265999972820282
          -0.8226000070571899 0.5527999997138977 -0.13339999318122864 0.9532999992370605 -0.004399999976158142 -0.301800012588501
          -0.8065000176429749 -0.3273000121116638 0.49230000376701355 -0.6751999855041504 -0.1776999980211258 0.7159000039100647
          0.8084999918937683 -0.54830002784729 0.21379999816417694 0.7957000136375427 -0.6055999994277954 0.010499999858438969
          -0.7860999703407288 0.5478000044822693 -0.28630000352859497 -0.7563999891281128 0.6111000180244446 -0.23330000042915344
          -0.43529999256134033 -0.6021000146865845 0.6693000197410583 -0.024000000208616257 -0.732200026512146 0.6807000041007996
          0.41819998621940613 -0.7523000240325928 0.5091000199317932 0.2535000145435333 -0.8398000001907349 0.48010000586509705
          -0.9229000210762024 -0.37310001254081726 0.09529999643564224 -0.8560000061988831 -0.46810001134872437 0.21940000355243683
          -0.8737000226974487 -0.47099998593330383 0.121799997985363 0.7418000102043152 -0.6646999716758728 0.0885000005364418
          0.7089999914169312 -0.7034000158309937 0.04969999939203262 -0.713100016117096 0.5870000123977661 -0.3833000063896179
          -0.7754999995231628 0.5002999901771545 -0.38510000705718994 -0.8371000289916992 0.49970000982284546 -0.2224999964237213
          0.41920000314712524 -0.7838000059127808 0.45809999108314514 0.2126999944448471 -0.7889000177383423 0.5766000151634216
          0.39890000224113464 -0.7699000239372253 0.49810001254081726 -0.20579999685287476 -0.7843000292778015 0.5852000117301941
          -0.6779000163078308 -0.5928000211715698 0.43479999899864197 0.6987000107765198 -0.7123000025749207 0.06610000133514404
          0.7322999835014343 -0.6801000237464905 0.035100001841783524 0.621999979019165 -0.7828999757766724 0.013899999670684338
          -0.9291999936103821 0.3458999991416931 -0.13009999692440033 0.10140000283718109 -0.7791000008583069 0.6187000274658203
          0.7245000004768372 -0.6759999990463257 0.13459999859333038 0.6593000292778015 -0.7436000108718872 0.11079999804496765
          -0.9430000185966492 0.2989000082015991 -0.14659999310970306 -0.9506000280380249 -0.23770000040531158 0.1995999962091446
          -0.9922999739646912 0.11389999836683273 0.04919999837875366 0.6599000096321106 -0.7123000025749207 0.23899999260902405
          0.5548999905586243 -0.7218000292778015 0.41370001435279846 0.6421999931335449 -0.6984999775886536 0.3158000111579895
          -0.8616999983787537 -0.2685999870300293 0.430400013923645 0.5034999847412109 -0.7087000012397766 0.49410000443458557
          0.38350000977516174 -0.7494000196456909 0.5396999716758728 0.2508000135421753 -0.7681000232696533 0.5892000198364258
          0.10809999704360962 -0.7215999960899353 0.6837999820709229 -0.16500000655651093 -0.5821999907493591 0.7961999773979187
          -0.4884999990463257 -0.42739999294281006 0.760699987411499 -0.715399980545044 -0.3059000074863434 0.6281999945640564
          0.3711000084877014 -0.6025000214576721 0.70660001039505 0.22100000083446503 -0.5516999959945679 0.8041999936103821
          -0.006899999920278788 -0.4878999888896942 0.8729000091552734 -0.311599999666214 -0.39410001039505005 0.8646000027656555
          0.17159999907016754 -0.4593000113964081 -0.8715999722480774 0.19089999794960022 -0.4302000105381012 -0.8823000192642212
          0.25040000677108765 -0.4406000077724457 -0.8619999885559082 0.013500000350177288 -0.4733999967575073 -0.8806999921798706
          -0.30480000376701355 -0.4876999855041504 -0.8180000185966492 -0.46070000529289246 -0.45399999618530273 -0.7626000046730042
          -0.4555000066757202 -0.4397999942302704 -0.7739999890327454 -0.5465999841690063 -0.44530001282691956 -0.7092000246047974
          -0.5056999921798706 -0.41679999232292175 -0.755299985408783 -0.5884000062942505 -0.45010000467300415 -0.6717000007629395
          0.2754000127315521 -0.43230000138282776 -0.8586000204086304 -0.7419000267982483 -0.37869998812675476 -0.5533000230789185
          -0.902899980545044 -0.27399998903274536 -0.3310999870300293 0.3483999967575073 -0.39959999918937683 -0.8478999733924866
          0.3416999876499176 -0.3125999867916107 -0.8863000273704529 0.4325000047683716 -0.3100000023841858 -0.8467000126838684
          -0.9638000130653381 -0.2012999951839447 -0.17479999363422394 0.5389000177383423 -0.4325000047683716 -0.7228999733924866
          0.5710999965667725 -0.24400000274181366 -0.7838000059127808 0.7113000154495239 -0.3675999939441681 -0.5990999937057495
          -0.95660001039505 -0.09260000288486481 -0.27630001306533813 -0.9905999898910522 0.005499999970197678 -0.13680000603199005
          0.7210000157356262 -0.46709999442100525 -0.5117999911308289 0.859499990940094 -0.3303000032901764 -0.39010000228881836
          -0.9161999821662903 0.3215000033378601 -0.23919999599456787 -0.9740999937057495 0.22290000319480896 -0.03779999911785126
          0.9129999876022339 -0.2029000073671341 -0.3540000021457672 0.5527999997138977 0.43389999866485596 0.7113999724388123
          -0.5799000263214111 0.4018999934196472 0.7087000012397766 0.21770000457763672 0.48410001397132874 0.8475000262260437
          0.9822999835014343 0.10849999636411667 0.1527000069618225 -0.9150000214576721 0.3855000138282776 -0.11909999698400497
          -0.8758000135421753 0.47929999232292175 -0.05790000036358833 0.9599999785423279 -0.00279999990016222 -0.2802000045776367
          -0.9319000244140625 -0.009499999694526196 0.3626999855041504 0.916100025177002 -0.3772999942302704 -0.1354999989271164
          0.8690999746322632 -0.48069998621940613 0.1160999983549118 -0.8424000144004822 0.5329999923706055 -0.07880000025033951
          -0.8492000102996826 0.527999997138977 -0.0015999999595806003 0.9904999732971191 0.12809999287128448 -0.049400001764297485
          -0.8920999765396118 -0.37279999256134033 0.25519999861717224 0.760699987411499 -0.6337000131607056 -0.14079999923706055
          0.5813999772071838 -0.7620999813079834 -0.2849000096321106 -0.8234000205993652 0.5652999877929688 -0.04989999905228615
          -0.7609999775886536 0.6377000212669373 -0.1193000003695488 0.9645000100135803 0.2524000108242035 0.07699999958276749
          0.9337999820709229 0.3564999997615814 -0.02930000051856041 0.9627000093460083 0.26910001039505005 0.02889999933540821
          -0.09269999712705612 -0.8555999994277954 0.5092999935150146 -0.7930999994277954 -0.5949000120162964 -0.13030000030994415
          0.5550000071525574 -0.8149999976158142 -0.16670000553131104 0.2957000136375427 -0.8525000214576721 -0.4311000108718872
          -0.5927000045776367 0.7504000067710876 -0.29260000586509705 -0.666700005531311 0.7172999978065491 -0.2021999955177307
          -0.6546000242233276 0.6765000224113464 -0.33730000257492065 0.9466000199317932 0.32179999351501465 0.01810000091791153
          0.3407000005245209 -0.8391000032424927 0.42410001158714294 -0.31119999289512634 -0.8986999988555908 0.3091000020503998
          -0.49000000953674316 -0.8126999735832214 -0.31529998779296875 -0.1623000055551529 -0.958899974822998 -0.2328999936580658
          0.27639999985694885 -0.9556000232696533 -0.10189999639987946 -0.5781000256538391 0.7720999717712402 -0.2639000117778778
          -0.6406999826431274 0.718500018119812 -0.2705000042915344 -0.5450000166893005 0.7473999857902527 -0.3797999918460846
          0.10480000078678131 -0.8291000127792358 0.5490999817848206 0.1720000058412552 -0.8565999865531921 0.4864000082015991
          -0.06030000001192093 -0.953000009059906 0.29679998755455017 0.10450000315904617 -0.9821000099182129 0.15639999508857727
          0.48579999804496765 -0.8604000210762024 0.15389999747276306 -0.669700026512146 0.6525999903678894 -0.35440000891685486
          -0.8641999959945679 0.45969998836517334 -0.20440000295639038 -0.7208999991416931 0.649399995803833 -0.24210000038146973
          0.25699999928474426 -0.6527000069618225 0.7127000093460083 0.2547999918460846 -0.6916999816894531 0.6757000088691711
          0.21809999644756317 -0.7897999882698059 0.5733000040054321 0.30390000343322754 -0.8528000116348267 0.424699991941452
          0.5523999929428101 -0.7857999801635742 0.2782999873161316 0.621399998664856 -0.7419000267982483 0.251800000667572
          0.5943999886512756 -0.7825999855995178 0.1850000023841858 -0.8048999905586243 0.5856999754905701 -0.09510000050067902
          -0.9417999982833862 0.18889999389648438 0.27810001373291016 0.5551000237464905 -0.7623999714851379 0.3325999975204468
          0.5709999799728394 -0.7357000112533569 0.364300012588501 -0.6906999945640564 -0.09279999881982803 0.7171000242233276
          -0.7613999843597412 0.11599999666213989 0.6377999782562256 0.4505999982357025 -0.6098999977111816 0.6517999768257141
          0.42890000343322754 -0.4832000136375427 0.7633000016212463 0.3571999967098236 -0.3763999938964844 0.8547999858856201
          0.21899999678134918 -0.2888000011444092 0.9319999814033508 0.06289999932050705 -0.23149999976158142 0.97079998254776
          -0.23999999463558197 -0.2409999966621399 0.9404000043869019 -0.1559000015258789 -0.4438000023365021 -0.8824999928474426
          -0.023099999874830246 -0.2621000111103058 -0.9648000001907349 0.15070000290870667 -0.3806000053882599 -0.9124000072479248
          -0.4081000089645386 -0.44190001487731934 -0.7989000082015991 -0.3422999978065491 -0.3253999948501587 -0.8813999891281128
          -0.49720001220703125 -0.40939998626708984 -0.7649999856948853 -0.49970000982284546 -0.3612000048160553 -0.7872999906539917
          -0.5230000019073486 -0.36070001125335693 -0.7723000049591064 0.28439998626708984 -0.39809998869895935 -0.8720999956130981
          0.2946999967098236 -0.30809998512268066 -0.9046000242233276 0.33149999380111694 -0.3296999931335449 -0.8840000033378601
          0.2199999988079071 -0.30709999799728394 -0.9258999824523926 -0.5321999788284302 -0.35120001435279846 -0.7702999711036682
          -0.7462000250816345 -0.3785000145435333 -0.5476999878883362 -0.6632999777793884 -0.29030001163482666 -0.6897000074386597
          -0.8945000171661377 -0.17589999735355377 -0.41110000014305115 0.37790000438690186 -0.26989999413490295 -0.885699987411499
          0.40700000524520874 -0.23770000040531158 -0.8820000290870667 -0.9642000198364258 -0.22499999403953552 -0.14010000228881836
          -0.9327999949455261 -0.1858000010251999 -0.30880001187324524 -0.9854000210762024 -0.08889999985694885 -0.1451999992132187
          0.5203999876976013 -0.1647000014781952 -0.8378999829292297 -0.9714000225067139 -0.1662999987602234 -0.16949999332427979
          -0.9984999895095825 -0.043299999088048935 -0.033799998462200165 0.642799973487854 -0.06080000102519989 -0.7635999917984009
          0.7982000112533569 -0.13830000162124634 -0.5863000154495239 -0.9965999722480774 0.07930000126361847 0.02019999921321869
          0.9609000086784363 -0.0877000018954277 -0.26260000467300415 -0.9675999879837036 0.21379999816417694 0.13429999351501465
          0.9901000261306763 0.08169999718666077 -0.1143999993801117 -0.4927999973297119 0.28790000081062317 0.8210999965667725
          0.3538999855518341 0.3010999858379364 0.8855000138282776 -0.9609000086784363 -0.15189999341964722 0.2312999963760376
          0.9819999933242798 0.007799999788403511 0.18889999389648438 0.8431000113487244 -0.38269999623298645 -0.37770000100135803
          -0.9016000032424927 0.43230000138282776 -0.012600000016391277 -0.9373999834060669 0.3244999945163727 0.12639999389648438
          0.9728999733924866 0.18440000712871552 -0.13920000195503235 -0.8149999976158142 -0.5424000024795532 -0.20399999618530273
          0.5472999811172485 -0.6061999797821045 -0.5770000219345093 -0.8805999755859375 0.4693000018596649 0.0649000033736229
          -0.8449000120162964 0.5317999720573425 0.05779999867081642 0.98089998960495 0.19439999759197235 0.007499999832361937
          -0.3596000075340271 -0.7926999926567078 -0.49219998717308044 -0.2685999870300293 -0.8937000036239624 -0.3594000041484833
          -0.7980999946594238 0.6014999747276306 -0.03370000049471855 -0.7825999855995178 0.6208999752998352 0.04580000042915344
          0.974399983882904 0.17649999260902405 0.13920000195503235 0.9639999866485596 0.22930000722408295 0.13449999690055847
          -0.11479999870061874 -0.9251999855041504 -0.36169999837875366 -0.7003999948501587 0.7087000012397766 -0.08510000258684158
          -0.7110999822616577 0.7028999924659729 0.016699999570846558 0.9016000032424927 0.35040000081062317 0.25380000472068787
          -0.619700014591217 0.7692000269889832 -0.1559000015258789 -0.5835000276565552 0.7615000009536743 -0.28220000863075256
          0.8260999917984009 0.47450000047683716 0.30410000681877136 -0.6212999820709229 0.7541999816894531 -0.21230000257492065
          -0.5091999769210815 0.8050000071525574 -0.3043000102043152 -0.5544999837875366 0.7638000249862671 -0.3303000032901764
          0.3546999990940094 -0.2921999990940094 0.8881000280380249 0.42410001158714294 -0.5218999981880188 0.7401000261306763
          0.3752000033855438 -0.6883999705314636 0.6208000183105469 0.5472999811172485 -0.4729999899864197 0.690500020980835
          0.3716999888420105 -0.7660999894142151 0.524399995803833 0.4771000146865845 -0.8230000138282776 0.3082999885082245