<?xml version="1.0"?>
<VTKFile type="PolyData" version="0.1" byte_order="LittleEndian" header_type="UInt32" compressor="vtkZLibDataCompressor">
  <PolyData>
    <FieldData>
      <Array type="String" Name="MaterialNames" NumberOfTuples="1" format="ascii">
        109 97 116 101 114 105 97 108 95 48 0
      </Array>
      <Array type="String" Name="MaterialLibraries" NumberOfTuples="1" format="ascii">
        109 97 116 101 114 105 97 108 46 109 116 108 0
      </Array>
    </FieldData>
    <Piece NumberOfPoints="1272" NumberOfVerts="0" NumberOfLines="0" NumberOfStrips="0" NumberOfPolys="2473">
      <PointData Normals="Normals">
        <DataArray type="Float32" Name="Normals" NumberOfComponents="3" format="ascii" RangeMin="0.9999312856386362" RangeMax="1.0000664182454495">
          0.3887999951839447 0.6638000011444092 0.6388999819755554 0.26019999384880066 0.6008999943733215 0.7558000087738037
          0.4106000065803528 0.4867999851703644 0.7710000276565552 -0.1370999962091446 -0.8438000082969666 -0.5188999772071838
          0.0032999999821186066 -0.8575000166893005 -0.5144000053405762 -0.027000000700354576 -0.8109999895095825 -0.5845000147819519
          0.7961999773979187 -0.0010000000474974513 -0.6050999760627747 0.8513000011444092 0.03240000084042549 -0.5236999988555908
          0.7694000005722046 -0.14399999380111694 -0.6223999857902527 -0.4884999990463257 -0.1949000060558319 -0.8504999876022339
          -0.4544000029563904 -0.38989999890327454 -0.8009999990463257 -0.27090001106262207 -0.4724000096321106 -0.838699996471405
          -0.26910001039505005 -0.5031999945640564 -0.8212000131607056 -0.3772999942302704 -0.5062000155448914 -0.7754999995231628
          -0.4708000123500824 -0.21629999577999115 -0.8553000092506409 0.73089998960495 0.15880000591278076 -0.6638000011444092
          0.7131999731063843 0.3483999967575073 -0.608299970626831 0.8159999847412109 0.21690000593662262 -0.5357999801635742
          0.054999999701976776 -0.734499990940094 0.6764000058174133 0.375900000333786 -0.5938000082969666 0.7113999724388123
          0.5241000056266785 -0.4702000021934509 0.710099995136261 0.1370999962091446 0.21619999408721924 0.96670001745224
          0.2143000066280365 0.0714000016450882 0.9742000102996826 0.22419999539852142 0.08630000054836273 0.9707000255584717
          -0.784600019454956 0.33340001106262207 -0.5228000283241272 -0.8077999949455261 -0.2703999876976013 -0.5238000154495239
          -0.8842999935150146 -0.16910000145435333 -0.43529999256134033 -0.8543999791145325 -0.24809999763965607 -0.45649999380111694
          0.9539999961853027 -0.2671000063419342 0.13590000569820404 0.9664000272750854 -0.2572000026702881 -0.0027000000700354576
          0.9772999882698059 -0.21070000529289246 0.02199999988079071 -0.6937000155448914 0.6912999749183655 0.2020999938249588
          -0.7164999842643738 0.6859999895095825 0.12700000405311584 -0.7768999934196472 0.6039999723434448 0.17749999463558197
          -0.3303000032901764 0.12460000067949295 0.9355999827384949 -0.33629998564720154 0.3783999979496002 0.8623999953269958
          -0.4706999957561493 0.2768000066280365 0.8378000259399414 -0.11789999902248383 0.3709999918937683 -0.9211000204086304
          -0.05139999836683273 0.57669997215271 -0.8152999877929688 -0.13289999961853027 0.2768999934196472 -0.95169997215271
          0.03550000116229057 0.9805999994277954 0.19259999692440033 -0.09059999883174896 0.9210000038146973 0.37880000472068787
          0.17910000681877136 0.923799991607666 0.3382999897003174 0.9106000065803528 0.0066999997943639755 0.4131999909877777
          0.9617999792098999 -0.1145000010728836 0.24869999289512634 0.9290000200271606 -0.12120000272989273 0.349700003862381
          0.2676999866962433 0.5084999799728394 0.8184000253677368 0.3799000084400177 0.3467999994754791 0.8575999736785889
          -0.8285999894142151 -0.31439998745918274 -0.46320000290870667 0.14350000023841858 -0.820900022983551 -0.5527999997138977
          0.18299999833106995 -0.8863999843597412 -0.4250999987125397 0.24289999902248383 -0.8580999970436096 -0.45239999890327454
          -0.33889999985694885 -0.7620999813079834 0.5516999959945679 -0.5310999751091003 -0.6830000281333923 0.5015000104904175
          0.16060000658035278 0.9731000065803528 -0.16500000655651093 0.03290000185370445 0.9785000085830688 -0.20340000092983246
          0.3278999924659729 0.9215999841690063 -0.2076999992132187 0.8461999893188477 0.5011000037193298 -0.18129999935626984
          0.9121000170707703 0.3792000114917755 -0.15600000321865082 0.9294999837875366 0.3131999969482422 -0.19470000267028809
          -0.9426000118255615 -0.2632000148296356 -0.20559999346733093 -0.9847000241279602 0.17430000007152557 0.005499999970197678
          -0.9873999953269958 0.1193000003695488 -0.10419999808073044 -0.8603000044822693 0.30799999833106995 0.40610000491142273
          -0.8741999864578247 0.3407999873161316 0.3458000123500824 -0.8565999865531921 0.27079999446868896 0.439300000667572
          0.9876000285148621 0.0284000001847744 0.1542000025510788 0.9602000117301941 0.0689999982714653 0.27070000767707825
          0.8841999769210815 -0.3617999851703644 0.2955000102519989 -0.7688000202178955 -0.566100001335144 -0.2973000109195709
          -0.9520000219345093 -0.3037000000476837 0.038600001484155655 -0.8213000297546387 -0.5138999819755554 -0.24779999256134033
          -0.5112000107765198 -0.2565000057220459 0.8202999830245972 -0.6362000107765198 -0.34220001101493835 0.6915000081062317
          -0.7046999931335449 -0.4645000100135803 0.536300003528595 -0.28290000557899475 0.7688999772071838 -0.5734000205993652
          -0.3919000029563904 0.7293999791145325 -0.560699999332428 -0.2257000058889389 0.758899986743927 -0.6108999848365784
          -0.8112000226974487 0.47749999165534973 -0.3375000059604645 -0.760699987411499 0.5960000157356262 -0.2572999894618988
          -0.7488999962806702 0.44850000739097595 -0.4878000020980835 0.9085999727249146 0.41659998893737793 0.031099999323487282
          0.945900022983551 0.28619998693466187 0.1525000035762787 0.9596999883651733 0.27379998564720154 0.06390000134706497
          0.944100022315979 -0.14339999854564667 0.2969000041484833 0.9847000241279602 -0.03290000185370445 0.17100000381469727
          0.9678000211715698 -0.08060000091791153 0.23849999904632568 -0.23819999396800995 -0.9153000116348267 -0.3249000012874603
          -0.1370999962091446 -0.8884000182151794 0.4381999969482422 0.15070000290870667 -0.9768000245094299 -0.15219999849796295
          -0.5759999752044678 -0.802299976348877 -0.1565999984741211 -0.2849999964237213 -0.11299999803304672 0.9517999887466431
          -0.31700000166893005 0.12530000507831573 0.9401000142097473 -0.399399995803833 0.0966000035405159 0.9117000102996826
          -0.8185999989509583 0.5170000195503235 0.2502000033855438 -0.8187999725341797 0.3995000123977661 0.4124000072479248
          -0.7979999780654907 0.5271999835968018 0.2921000123023987 -0.6618000268936157 -0.06440000236034393 -0.7469000220298767
          -0.4693000018596649 -0.6256999969482422 -0.6230000257492065 -0.6721000075340271 -0.5015000104904175 -0.5447999835014343
          -0.7443000078201294 -0.40369999408721924 -0.5320000052452087 0.23489999771118164 -0.14110000431537628 0.9617000222206116
          0.34880000352859497 -0.03610000014305115 0.9365000128746033 0.37770000100135803 -0.1454000025987625 0.9143999814987183
          -0.17579999566078186 -0.11410000175237656 0.9778000116348267 -0.09950000047683716 -0.07689999788999557 0.9921000003814697
          -0.12150000035762787 -0.12639999389648438 0.984499990940094 -0.32420000433921814 -0.8154000043869019 -0.4796000123023987
          -0.12800000607967377 -0.8608999848365784 -0.49230000376701355 -0.18479999899864197 -0.800599992275238 -0.5699999928474426
          -0.2806999981403351 -0.5601999759674072 -0.7792999744415283 -0.15559999644756317 -0.6642000079154968 -0.7311000227928162
          -0.9922999739646912 0.07109999656677246 0.10170000046491623 -0.8913999795913696 -0.40950000286102295 -0.19439999759197235
          -0.9894000291824341 -0.13300000131130219 0.05889999866485596 -0.43149998784065247 0.4984999895095825 0.7519000172615051
          -0.3594000041484833 0.48260000348091125 0.7986999750137329 -0.5034999847412109 0.48590001463890076 0.7143999934196472
          -0.21209999918937683 -0.5891000032424927 -0.779699981212616 0.14949999749660492 -0.4796999990940094 -0.8646000027656555
          0.08760000020265579 -0.3831999897956848 -0.9194999933242798 0.3375000059604645 -0.3553999960422516 -0.8715999722480774
          0.24779999256134033 -0.3808000087738037 -0.8909000158309937 0.44449999928474426 -0.24529999494552612 -0.8615999817848206
          0.18629999458789825 0.5473999977111816 -0.8159000277519226 0.31139999628067017 0.19380000233650208 -0.9302999973297119
          0.062300000339746475 0.3700000047683716 -0.9269000291824341 0.6222000122070312 0.19529999792575836 0.7580999732017517
          0.3898000121116638 0.13850000500679016 0.9103999733924866 0.48159998655319214 0.487199991941452 0.7285000085830688
          0.14229999482631683 0.5291000008583069 0.8364999890327454 0.3179999887943268 0.8683000206947327 0.3806999921798706
          0.10840000212192535 -0.890500009059906 -0.44179999828338623 -0.05979999899864197 -0.8769999742507935 -0.47679999470710754
          0.20250000059604645 -0.8248999714851379 -0.5277000069618225 -0.36660000681877136 -0.7703999876976013 -0.5216000080108643
          0.06499999761581421 -0.3659999966621399 0.9283000230789185 -0.6935999989509583 -0.23029999434947968 0.6825000047683716
          -0.33000001311302185 0.048700001090765 0.9427000284194946 -0.6583999991416931 0.7335000038146973 -0.1687999963760376
          -0.659600019454956 0.7477999925613403 -0.07559999823570251 -0.5733000040054321 0.8082000017166138 -0.1347000002861023
          -0.14059999585151672 0.98089998960495 -0.1347000002861023 -0.06769999861717224 0.987500011920929 -0.1421000063419342
          0.035999998450279236 0.9871000051498413 -0.155799999833107 -0.014499999582767487 -0.5024999976158142 -0.8644999861717224
          -0.12809999287128448 -0.7858999967575073 -0.6049000024795532 -0.04190000146627426 -0.7400000095367432 -0.6712999939918518
          -0.10700000077486038 -0.8540999889373779 -0.508899986743927 0.7712000012397766 -0.2831999957561493 0.5702000260353088
          0.8008000254631042 -0.25600001215934753 0.5414999723434448 0.8501999974250793 -0.25440001487731934 0.4609000086784363
          0.4675999879837036 -0.16359999775886536 0.8687000274658203 0.5835000276565552 -0.15230000019073486 0.7976999878883362
          0.5001999735832214 -0.1462000012397766 0.8535000085830688 0.3790000081062317 -0.7720000147819519 -0.510200023651123
          0.5167999863624573 -0.7885000109672546 -0.3334999978542328 0.6492000222206116 -0.661899983882904 -0.37459999322891235
          0.25609999895095825 -0.8948000073432922 -0.36570000648498535 0.33719998598098755 -0.8712000250816345 -0.35690000653266907
          -0.6866000294685364 0.30809998512268066 0.6585000157356262 -0.829200029373169 0.09009999781847 0.5516999959945679
          0.07840000092983246 0.9085999727249146 0.41029998660087585 0.34599998593330383 0.9147999882698059 0.20839999616146088
          0.07649999856948853 0.9577999711036682 0.27709999680519104 0.5562000274658203 -0.3212999999523163 -0.7663999795913696
          0.607200026512146 -0.23690000176429749 -0.758400022983551 0.7408000230789185 -0.23829999566078186 -0.628000020980835
          -0.3018999993801117 0.41100001335144043 -0.8601999878883362 0.8410999774932861 -0.41999998688697815 0.3407999873161316
          0.9014000296592712 -0.32910001277923584 0.28139999508857727 0.7972999811172485 -0.4957999885082245 0.3441999852657318
          0.5299000144004822 0.819100022315979 -0.21969999372959137 0.42309999465942383 0.8597000241279602 -0.28630000352859497
          0.4659000039100647 0.859499990940094 -0.210099995136261 0.7554000020027161 0.44020000100135803 0.4855000078678131
          0.6327000260353088 0.6060000061988831 0.4821999967098236 0.6007000207901001 0.4634000062942505 0.6514000296592712
          0.5103999972343445 0.4749999940395355 -0.7167999744415283 0.4343999922275543 0.45840001106262207 -0.7753999829292297
          0.30140000581741333 0.6758000254631042 -0.6725999712944031 0.3849000036716461 0.8830999732017517 -0.26829999685287476
          0.2533999979496002 0.07100000232458115 0.9648000001907349 0.20589999854564667 0.04470000043511391 0.9775000214576721
          0.25119999051094055 0.11400000005960464 0.9611999988555908 -0.4250999987125397 -0.6711999773979187 -0.6072999835014343
          -0.5525000095367432 -0.6703000068664551 -0.49549999833106995 -0.7142000198364258 -0.5764999985694885 -0.3968999981880188
          -0.2053000032901764 -0.6931999921798706 -0.6909000277519226 -0.25540000200271606 -0.6385999917984009 -0.7260000109672546
          -0.2809000015258789 -0.6804999709129333 -0.676800012588501 0.5737000107765198 -0.0017000000225380063 0.819100022315979
          0.638700008392334 -0.07599999755620956 0.7656999826431274 0.710099995136261 0.04830000177025795 0.7024000287055969
          0.7975000143051147 0.4343999922275543 0.4187000095844269 0.8130999803543091 0.3653999865055084 0.45320001244544983
          0.8187999725341797 0.267300009727478 0.5080999732017517 0.02250000089406967 -0.4142000079154968 -0.9099000096321106
          0.1932000070810318 -0.3767000138759613 -0.906000018119812 0.11259999871253967 -0.2700999975204468 -0.9562000036239624
          -0.7246999740600586 -0.6110000014305115 -0.31859999895095825 -0.6554999947547913 -0.7440000176429749 -0.12960000336170197
          -0.48739999532699585 -0.8579999804496765 -0.16249999403953552 -0.11500000208616257 0.08669999986886978 0.9896000027656555
          0.00800000037997961 0.00839999970048666 0.9998999834060669 -0.09570000320672989 -0.016100000590085983 0.9952999949455261
          -0.4090999960899353 0.32359999418258667 0.8532000184059143 -0.5837000012397766 0.2606000006198883 0.7689999938011169
          -0.6097000241279602 0.38690000772476196 0.6917999982833862 -0.9466000199317932 -0.18700000643730164 -0.26260000467300415
          -0.880299985408783 0.026100000366568565 -0.47360000014305115 -0.45339998602867126 -0.482699990272522 -0.7493000030517578
          -0.7077000141143799 -0.40380001068115234 -0.579800009727478 -0.6786999702453613 -0.5447999835014343 -0.49239999055862427
          -0.8141999840736389 0.5777000188827515 0.057100001722574234 -0.7706000208854675 0.6189000010490417 0.15230000019073486
          -0.7728000283241272 0.6262999773025513 0.10260000079870224 -0.7940999865531921 0.598800003528595 -0.10440000146627426
          0.7523999810218811 -0.27149999141693115 -0.6000999808311462 0.5393000245094299 -0.7484999895095825 -0.38600000739097595
          0.5009999871253967 -0.5162000060081482 -0.694599986076355 0.38960000872612 0.914900004863739 -0.10580000281333923
          0.6398000121116638 0.7645999789237976 0.07779999822378159 0.8427000045776367 -0.364300012588501 -0.39649999141693115
          0.8607000112533569 -0.373199999332428 -0.3463999927043915 0.6973000168800354 -0.42399999499320984 -0.5778999924659729
          0.9609000086784363 -0.2759999930858612 0.023900000378489494 0.9605000019073486 -0.27630001306533813 0.032600000500679016
          0.9632999897003174 -0.24320000410079956 0.1137000024318695 -0.7243000268936157 0.5120000243186951 0.4618000090122223
          -0.7595999836921692 0.5425999760627747 0.358599990606308 -0.8539000153541565 0.38830000162124634 0.3465000092983246
          -0.6955999732017517 0.6176000237464905 0.36719998717308044 -0.64410001039505 0.6480000019073486 0.40639999508857727
          -0.6969000101089478 0.5949000120162964 0.40059998631477356 -0.22519999742507935 0.9667999744415283 -0.120899997651577
          -0.3037000000476837 0.9465000033378601 -0.10869999974966049 -0.1543000042438507 0.9785000085830688 -0.1370999962091446
          -0.4169999957084656 0.9072999954223633 0.05380000174045563 -0.5139999985694885 0.8291000127792358 0.2198999971151352
          -0.3409999907016754 0.9325000047683716 0.11909999698400497 0.8666999936103821 -0.36070001125335693 0.34439998865127563
          0.91839998960495 -0.22470000386238098 0.3255000114440918 0.9379000067710876 -0.250900000333786 0.23970000445842743
          0.9905999898910522 -0.09179999679327011 0.10109999775886536 -0.41200000047683716 0.01889999955892563 -0.9110000133514404
          -0.34529998898506165 -0.06949999928474426 -0.9358999729156494 -0.20180000364780426 -0.3481999933719635 -0.9154000282287598
          -0.44110000133514404 0.35899999737739563 -0.8224999904632568 -0.4620000123977661 0.40610000491142273 -0.7885000109672546
          -0.439300000667572 0.6539999842643738 -0.6158999800682068 -0.08940000087022781 0.8486999869346619 0.5213000178337097
          0.09799999743700027 0.8245999813079834 0.557200014591217 0.025200000032782555 0.8716999888420105 0.4893999993801117
          -0.49889999628067017 0.28940001130104065 0.8169000148773193 -0.5733000040054321 0.3091000020503998 0.7588000297546387
          -0.014600000344216824 -0.5892999768257141 -0.8077999949455261 -0.21310000121593475 -0.5152999758720398 -0.8300999999046326
          -0.2603999972343445 -0.5447999835014343 -0.7971000075340271 0.6366999745368958 -0.3506999909877777 -0.6868000030517578
          0.8766000270843506 0.08980000019073486 -0.47279998660087585 0.24390000104904175 0.12300000339746475 -0.9620000123977661
          -0.8004000186920166 -0.5771999955177307 -0.16189999878406525 0.6758999824523926 0.7368000149726868 -0.019300000742077827
          0.6693000197410583 0.7422999739646912 -0.031599998474121094 0.7303000092506409 0.679099977016449 0.07400000095367432
          0.9239000082015991 0.35589998960494995 0.14079999923706055 0.9070000052452087 0.34529998898506165 0.24089999496936798
          0.9276000261306763 0.27730000019073486 0.25040000677108765 -0.636900007724762 -0.257999986410141 -0.7264999747276306
          -0.4528999924659729 -0.28360000252723694 -0.8452000021934509 -0.43959999084472656 -0.2750999927520752 -0.8550000190734863
          -0.7124999761581421 -0.30730000138282776 -0.6308000087738037 -0.741599977016449 -0.27649998664855957 0.6111999750137329
          -0.9624000191688538 -0.17339999973773956 0.20900000631809235 -0.4814999997615814 0.12559999525547028 0.8673999905586243
          0.2888000011444092 -0.33320000767707825 0.8974999785423279 -0.19169999659061432 -0.5139999985694885 0.8360999822616577
          0.010999999940395355 -0.32820001244544983 0.9445000290870667 -0.6040999889373779 0.46309998631477356 0.6485000252723694
          -0.7179999947547913 0.373199999332428 0.5875999927520752 -0.6682999730110168 0.41780000925064087 0.6154999732971191
          -0.9214000105857849 -0.38429999351501465 -0.05820000171661377 -0.919700026512146 -0.34619998931884766 0.18529999256134033
          -0.39649999141693115 0.7775999903678894 -0.4880000054836273 -0.33559998869895935 0.7567999958992004 -0.5609999895095825
          -0.5613999962806702 0.8119999766349792 -0.1599999964237213 -0.6273999810218811 0.7759000062942505 -0.06620000302791595
          -0.6632000207901001 0.7452999949455261 -0.06939999759197235 0.9495999813079834 -0.21709999442100525 -0.22609999775886536
          0.9397000074386597 -0.08070000261068344 -0.33239999413490295 0.9664999842643738 -0.08609999716281891 -0.241799995303154
          0.8084999918937683 0.4706000089645386 -0.353300005197525 0.8967999815940857 0.3529999852180481 -0.26669999957084656
          0.9064000248908997 0.258899986743927 -0.33379998803138733 0.2590000033378601 0.7843000292778015 -0.5637000203132629
          0.24690000712871552 0.8334000110626221 -0.4945000112056732 0.31459999084472656 0.8210999965667725 -0.4763000011444092
          -0.09009999781847 0.7203999757766724 -0.6876999735832214 -0.15330000221729279 0.5978999733924866 -0.7867000102996826
          -0.3158999979496002 -0.16030000150203705 -0.9351000189781189 -0.23839999735355377 -0.6420999765396118 -0.728600025177002
          -0.12690000236034393 -0.5509999990463257 -0.8248000144958496 0.09149999916553497 -0.8364999890327454 -0.5401999950408936
          -0.03280000016093254 -0.776199996471405 -0.6297000050544739 0.003800000064074993 -0.8906000256538391 -0.45489999651908875
          0.8458999991416931 -0.4203999936580658 0.3280999958515167 0.7548999786376953 0.6309000253677368 0.17919999361038208
          0.6407999992370605 0.713699996471405 0.28290000557899475 0.7839000225067139 0.5475000143051147 0.2928999960422516
          0.35519999265670776 0.9222000241279602 0.1527000069618225 0.06499999761581421 0.6775000095367432 0.7325999736785889
          -0.46639999747276306 0.6498000025749207 0.6001999974250793 -0.37380000948905945 0.5153999924659729 0.7710999846458435
          0.8654000163078308 0.1542000025510788 0.4767000079154968 0.6905999779701233 0.07050000131130219 0.7197999954223633
          0.7749000191688538 -0.43209999799728394 0.46140000224113464 -0.020800000056624413 -0.1550000011920929 0.9876999855041504
          -0.1289999932050705 -0.14399999380111694 0.9811000227928162 -0.017999999225139618 -0.15850000083446503 0.9872000217437744
          0.21400000154972076 -0.28679999709129333 0.9337999820709229 0.11900000274181366 -0.2240000069141388 0.9672999978065491
          -0.7795000076293945 -0.6154000163078308 0.11710000038146973 -0.5285999774932861 -0.72079998254776 -0.44850000739097595
          0.8246999979019165 -0.5583000183105469 0.09030000120401382 0.7773000001907349 -0.6022999882698059 0.1817999929189682
          0.27070000767707825 -0.8503999710083008 -0.4510999917984009 0.29089999198913574 -0.855400025844574 -0.4284999966621399
          0.22789999842643738 -0.8061000108718872 -0.5461999773979187 -0.10570000112056732 -0.49729999899864197 -0.8611000180244446
          -0.041200000792741776 -0.5590000152587891 -0.8281000256538391 -0.010499999858438969 -0.5473999977111816 -0.8367999792098999
          0.8870999813079834 -0.34929999709129333 -0.30169999599456787 0.670799970626831 0.6808000206947327 -0.2939999997615814
          0.5205000042915344 0.7897999882698059 -0.3246000111103058 0.6266000270843506 0.7437000274658203 -0.23319999873638153
          0.6571999788284302 0.28630000352859497 -0.6973000168800354 0.5800999999046326 0.4876999855041504 -0.6523000001907349
          -0.35580000281333923 -0.004900000058114529 0.9345999956130981 -0.2506999969482422 0.0706000030040741 0.965499997138977
          -0.2996000051498413 -0.041200000792741776 0.9531999826431274 -0.6773999929428101 0.3052999973297119 0.6693000197410583
          -0.7572000026702881 0.35030001401901245 0.5512999892234802 -0.6499000191688538 0.11400000005960464 0.7513999938964844
          -0.08299999684095383 0.1574999988079071 -0.984000027179718 -0.32499998807907104 -0.2632000148296356 -0.90829998254776
          -0.1842000037431717 -0.026200000196695328 -0.9825000166893005 -0.4505000114440918 0.1599999964237213 -0.8783000111579895
          0.2766000032424927 -0.9108999967575073 -0.3061999976634979 0.287200003862381 -0.9092000126838684 -0.3012999892234802
          0.2102999985218048 -0.8841000199317932 -0.4172999858856201 -0.651199996471405 -0.5914999842643738 -0.4754999876022339
          -0.5827000141143799 -0.7121000289916992 -0.39160001277923584 -0.7867000102996826 -0.5313000082969666 -0.314300000667572
          0.8080999851226807 0.20170000195503235 0.5533999800682068 0.7967000007629395 0.14800000190734863 0.5859000086784363
          0.9045000076293945 -0.19359999895095825 0.3799999952316284 0.9440000057220459 -0.03180000185966492 0.32850000262260437
          0.8952999711036682 -0.16590000689029694 0.41339999437332153 -0.6284000277519226 -0.6794999837875366 -0.37860000133514404
          -0.7964000105857849 0.462799996137619 0.38920000195503235 -0.20329999923706055 0.7487999796867371 0.6308000087738037
          -0.32710000872612 0.6902999877929688 0.6452999711036682 -0.26930001378059387 0.8138999938964844 0.5149000287055969
          -0.7437999844551086 0.6342999935150146 0.21089999377727509 -0.7202000021934509 0.6492000222206116 0.24480000138282776
          -0.7541000247001648 0.6067000031471252 0.2515000104904175 -0.7599999904632568 0.6403999924659729 0.11110000312328339
          -0.8172000050544739 0.555899977684021 0.15189999341964722 -0.7580999732017517 0.6500999927520752 0.051600001752376556
          -0.4230000078678131 -0.9034000039100647 0.0697999969124794 0.004399999976158142 -0.8812999725341797 -0.4726000130176544
          0.07479999959468842 -0.8981000185012817 -0.4334000051021576 0.09059999883174896 -0.8815000057220459 -0.4632999897003174
          -0.7742000222206116 0.2897000014781952 -0.5627999901771545 -0.8112000226974487 0.3546999990940094 -0.4650000035762787
          -0.8808000087738037 -0.1704999953508377 -0.4417000114917755 0.9431999921798706 0.010499999858438969 -0.3319000005722046
          0.7634000182151794 0.38769999146461487 -0.5166000127792358 0.890500009059906 0.41760000586509705 -0.1808999925851822
          0.8615000247955322 0.49619999527931213 0.10750000178813934 -0.19830000400543213 -0.19949999451637268 0.9595999717712402
          0.5217000246047974 0.289000004529953 0.8026999831199646 0.4629000127315521 0.1225999966263771 0.8779000043869019
          -0.43290001153945923 0.8465999960899353 0.30970001220703125 -0.31769999861717224 0.8507999777793884 0.4185999929904938
          -0.2321999967098236 0.9435999989509583 0.23579999804496765 -0.6851000189781189 0.6069999933242798 0.4027000069618225
          -0.7132999897003174 0.44339999556541443 0.5428000092506409 0.6809999942779541 -0.4925000071525574 0.5419999957084656
          -0.2524999976158142 0.8705000281333923 -0.42250001430511475 -0.15449999272823334 0.9240999817848206 -0.34950000047683716
          -0.04039999842643738 0.891700029373169 -0.45089998841285706 -0.41609999537467957 0.8741999864578247 -0.25029999017715454
          -0.5011000037193298 0.8434000015258789 -0.19380000233650208 -0.32429999113082886 0.9223999977111816 -0.20980000495910645
          0.16680000722408295 -0.5777000188827515 -0.7990000247955322 0.5278000235557556 -0.44940000772476196 -0.7207000255584717
          0.5523999929428101 -0.4140999913215637 -0.7233999967575073 0.7099000215530396 -0.37139999866485596 -0.5985000133514404
          0.859000027179718 -0.37610000371932983 0.3472000062465668 0.7943999767303467 -0.5565000176429749 0.24330000579357147
          0.9071999788284302 0.04450000077486038 -0.41839998960494995 0.33869999647140503 0.8805999755859375 -0.33149999380111694
          0.290800005197525 0.8725000023841858 -0.3926999866962433 0.30079999566078186 0.9053999781608582 -0.299699991941452
          0.07400000095367432 0.9157999753952026 -0.39480000734329224 -0.42500001192092896 -0.6700999736785889 -0.6086000204086304
          -0.6786999702453613 -0.5263000130653381 -0.5121999979019165 -0.5536999702453613 -0.7240999937057495 -0.41110000014305115
          -0.5483999848365784 -0.508899986743927 -0.6635000109672546 -0.42010000348091125 -0.777999997138977 -0.46720001101493835
          -0.4007999897003174 -0.829800009727478 -0.38839998841285706 0.007699999958276749 -0.7944999933242798 -0.607200026512146
          -0.7059000134468079 -0.6805999875068665 -0.19609999656677246 -0.6103000044822693 -0.6377999782562256 -0.4697999954223633
          -0.8652999997138977 -0.4975999891757965 -0.06019999831914902 0.901199996471405 -0.12189999967813492 -0.41589999198913574
          0.90829998254776 -0.2078000009059906 -0.3628999888896942 0.8434000015258789 -0.26080000400543213 -0.46970000863075256
          0.8241000175476074 -0.30790001153945923 -0.47540000081062317 0.8281000256538391 -0.35659998655319214 -0.4323999881744385
          0.7055000066757202 -0.4221000075340271 -0.5692999958992004 -0.2806999981403351 -0.8503000140190125 -0.44519999623298645
          -0.527400016784668 -0.7268999814987183 -0.4399000108242035 -0.12870000302791595 -0.8521000146865845 -0.5073000192642212
          -0.8087999820709229 -0.5684000253677368 -0.15080000460147858 -0.6266999840736389 -0.704800009727478 -0.33239999413490295
          -0.9556000232696533 -0.28929999470710754 0.056299999356269836 -0.6672999858856201 0.6018000245094299 0.43869999051094055
          -0.7328000068664551 0.33079999685287476 0.5946000218391418 -0.17810000479221344 -0.11999999731779099 -0.9767000079154968
          -0.4844000041484833 0.20190000534057617 -0.8511999845504761 0.5889999866485596 0.8039000034332275 -0.08259999752044678
          0.6100000143051147 0.7918000221252441 -0.031300000846385956 0.5917999744415283 0.7814000248908997 0.19769999384880066
          0.38960000872612 0.8589000105857849 0.33239999413490295 0.8919000029563904 0.14970000088214874 0.42669999599456787
          0.847100019454956 0.21649999916553497 0.48539999127388 0.8820000290870667 0.25130000710487366 0.3986000120639801
          0.7019000053405762 -0.25279998779296875 0.6658999919891357 0.7544999718666077 -0.23070000112056732 0.6144999861717224
          0.6193000078201294 0.2134999930858612 -0.7555999755859375 0.5717999935150146 -0.226500004529953 -0.7885000109672546
          0.9189000129699707 0.17520000040531158 0.35339999198913574 0.9279000163078308 0.010499999858438969 0.37279999256134033
          0.9059000015258789 0.26589998602867126 0.329800009727478 -0.09929999709129333 -0.18219999969005585 -0.9782000184059143
          0.04450000077486038 -0.5446000099182129 -0.8374999761581421 0.08030000329017639 -0.5584999918937683 -0.8256000280380249
          -0.3885999917984009 0.1851000040769577 0.9025999903678894 -0.12780000269412994 0.13099999725818634 0.9830999970436096
          0.029400000348687172 0.22669999301433563 0.9735000133514404 -0.1509999930858612 0.3138999938964844 0.9373999834060669