<?xml version="1.0"?>
<VTKFile type="PolyData" version="0.1" byte_order="LittleEndian" header_type="UInt32" compressor="vtkZLibDataCompressor">
  <PolyData>
    <FieldData>
      <Array type="String" Name="MaterialNames" NumberOfTuples="1" format="ascii">
        109 97 116 101 114 105 97 108 95 48 0
      </Array>
      <Array type="String" Name="MaterialLibraries" NumberOfTuples="1" format="ascii">
        109 97 116 101 114 105 97 108 46 109 116 108 0
      </Array>
    </FieldData>
    <Piece NumberOfPoints="762" NumberOfVerts="0" NumberOfLines="0" NumberOfStrips="0" NumberOfPolys="1504">
      <PointData Normals="Normals">
        <DataArray type="Float32" Name="Normals" NumberOfComponents="3" format="ascii" RangeMin="0.9999222572356141" RangeMax="1.0000807776825273">
          -0.30709999799728394 -0.946399986743927 -0.09989999979734421 -0.020899999886751175 -0.8109999895095825 0.5846999883651733
          -0.8747000098228455 -0.42170000076293945 0.23880000412464142 0.388700008392334 -0.9168999791145325 -0.09049999713897705
          -0.5180000066757202 -0.7782999873161316 -0.3549000024795532 -0.22679999470710754 -0.7900000214576721 0.569599986076355
          -0.05350000038743019 -0.7432000041007996 0.6668999791145325 -0.6294000148773193 -0.49410000443458557 0.5997999906539917
          0.48019999265670776 -0.8198999762535095 0.3118000030517578 -0.8877999782562256 -0.40070000290870667 0.2264000028371811
          -0.8820000290870667 -0.24150000512599945 0.40459999442100525 -0.9936000108718872 -0.010700000450015068 0.11209999769926071
          0.6711999773979187 -0.7342000007629395 -0.10220000147819519 -0.9643999934196472 -0.257099986076355 -0.06129999831318855
          -0.5278000235557556 -0.7800999879837036 -0.3359000086784363 -0.9674000144004822 -0.1809999942779541 -0.17730000615119934
          0.3589000105857849 -0.8442999720573425 -0.3978999853134155 -0.3450999855995178 -0.8127999901771545 -0.4693000018596649
          -0.18529999256134033 -0.9648000001907349 -0.18690000474452972 -0.27880001068115234 -0.8910999894142151 0.3580000102519989
          -0.6690999865531921 -0.7391999959945679 0.07680000364780426 0.26080000400543213 -0.9610000252723694 -0.09210000187158585
          -0.15489999949932098 -0.6305999755859375 0.7605000138282776 -0.0010000000474974513 -0.3206000030040741 0.9472000002861023
          -0.5063999891281128 -0.005200000014156103 0.8622999787330627 0.552299976348877 -0.6438000202178955 0.5295000076293945
          -0.6710000038146973 -0.2337999939918518 0.7035999894142151 -0.6110000014305115 0.30979999899864197 0.7285000085830688
          -0.8600999712944031 0.22010000050067902 0.4602999985218048 0.7818999886512756 -0.6060000061988831 0.14640000462532043
          -0.8866000175476074 0.44110000133514404 0.13910000026226044 0.7563999891281128 -0.6391000151634216 -0.13950000703334808
          -0.9610999822616577 0.2687000036239624 -0.06379999965429306 -0.9351999759674072 0.35019999742507935 -0.05209999904036522
          0.6150000095367432 -0.6669999957084656 -0.4205000102519989 -0.5974000096321106 -0.5906999707221985 -0.5422999858856201
          -0.9642000198364258 0.0364999994635582 -0.26249998807907104 0.3467999994754791 -0.6966000199317932 -0.628000020980835
          -0.29260000586509705 -0.30160000920295715 -0.9074000120162964 -0.10840000212192535 -0.7840999960899353 0.6111999750137329
          -0.6092000007629395 -0.532800018787384 0.5873000025749207 0.3587000072002411 -0.9294000267982483 0.08699999749660492
          -0.7504000067710876 -0.5839999914169312 0.3095000088214874 0.5568000078201294 -0.7868000268936157 -0.266400009393692
          -0.7645999789237976 -0.63919997215271 -0.08240000158548355 -0.8762000203132629 -0.388700008392334 0.2849000096321106
          -0.9376000165939331 -0.3199999928474426 -0.13580000400543213 -0.42590001225471497 -0.8317000269889832 -0.3562000095844269
          0.28459998965263367 -0.8061000108718872 -0.5188000202178955 -0.6352999806404114 -0.5788000226020813 -0.5112000107765198
          -0.10090000182390213 -0.7159000039100647 -0.6908000111579895 0.41839998960494995 0.15950000286102295 0.8942000269889832
          -0.25609999895095825 0.5543000102043152 0.7918999791145325 0.901199996471405 -0.1712999939918518 0.39809998869895935
          -0.6643999814987183 0.6650999784469604 0.3409000039100647 -0.5188000202178955 0.6747000217437744 0.5249999761581421
          0.8077999949455261 -0.5252000093460083 0.2676999866962433 -0.7786999940872192 0.6270999908447266 0.01889999955892563
          -0.6642000079154968 0.7315000295639038 0.15410000085830688 0.7479000091552734 -0.6635000109672546 0.019899999722838402
          0.7224000096321106 -0.6626999974250793 -0.19709999859333038 0.7675999999046326 -0.6358000040054321 -0.08089999854564667
          -0.8762999773025513 0.4666000008583069 0.12020000070333481 0.6262999773025513 -0.6222000122070312 -0.46970000863075256
          0.7156000137329102 -0.6033999919891357 -0.35199999809265137 -0.9947999715805054 -0.08009999990463257 -0.06369999796152115
          0.552299976348877 -0.31290000677108765 -0.7728000283241272 0.6011000275611877 -0.41440001130104065 -0.6833000183105469
          -0.21960000693798065 -0.00930000003427267 -0.9754999876022339 -0.21770000457763672 -0.8008999824523926 0.5577999949455261
          -0.33219999074935913 -0.48010000586509705 0.8119000196456909 -0.48660001158714294 -0.5497999787330627 0.6790000200271606
          0.0908999964594841 -0.9810000061988831 0.17139999568462372 -0.10459999740123749 -0.7832000255584717 0.6129000186920166
          0.3617999851703644 -0.9193999767303467 0.1543000042438507 -0.6699000000953674 -0.49390000104904175 0.5543000102043152
          -0.7317000031471252 -0.2264000028371811 0.6428999900817871 -0.8072999715805054 -0.26170000433921814 0.5289999842643738
          0.26510000228881836 -0.9584000110626221 -0.10599999874830246 0.47859999537467957 -0.8162000179290771 -0.3237999975681305
          -0.9426000118255615 -0.14139999449253082 0.3025999963283539 0.5845999717712402 -0.6930999755859375 -0.42170000076293945
          0.4936999976634979 -0.7562000155448914 -0.4293999969959259 -0.9646000266075134 -0.2549000084400177 -0.06710000336170197
          0.46239998936653137 -0.6435999870300293 -0.6098999977111816 -0.6850000023841858 -0.51910001039505 -0.5112000107765198
          -0.1476999968290329 -0.6758999824523926 -0.722100019454956 0.53329998254776 0.4853000044822693 0.692799985408783
          0.31360000371932983 0.6177999973297119 0.7210999727249146 -0.3208000063896179 0.8342999815940857 0.44830000400543213
          0.7716000080108643 -0.27880001068115234 0.5717999935150146 0.7975000143051147 -0.5766000151634216 0.1777999997138977
          0.9013000130653381 -0.40149998664855957 0.1624000072479248 -0.45980000495910645 0.8604999780654907 0.21930000185966492
          0.9584000110626221 -0.2526000142097473 -0.13279999792575836 -0.46070000529289246 0.7512000203132629 0.47269999980926514
          0.7541000247001648 -0.40689998865127563 -0.5156000256538391 -0.885699987411499 -0.3928000032901764 0.2475000023841858
          -0.6751000285148621 -0.046799998730421066 0.736299991607666 -0.8938000202178955 -0.4138000011444092 0.17329999804496765
          0.5152999758720398 0.23190000653266907 -0.8251000046730042 0.5859000086784363 -0.20600000023841858 -0.7836999893188477
          0.05420000106096268 -0.8097000122070312 0.5843999981880188 -0.10490000247955322 -0.6200000047683716 0.7775999903678894
          -0.28929999470710754 -0.48069998621940613 0.8277999758720398 -0.4733000099658966 -0.6055999994277954 -0.6396999955177307
          0.3221000134944916 -0.9273999929428101 0.1899999976158142 0.32010000944137573 0.288100004196167 -0.9024999737739563
          -0.4758000075817108 -0.16590000689029694 0.8636999726295471 -0.573199987411499 -0.10790000110864639 0.8123000264167786
          -0.33570000529289246 -0.32089999318122864 0.8855999708175659 0.6065000295639038 -0.7792999744415283 -0.15770000219345093
          -0.8187000155448914 -0.12759999930858612 0.5598999857902527 0.6165000200271606 -0.632099986076355 -0.46939998865127563
          -0.9225000143051147 -0.22050000727176666 0.31690001487731934 0.6043000221252441 -0.5799000263214111 -0.5464000105857849
          -0.957099974155426 -0.28839999437332153 0.0272000003606081 0.649399995803833 -0.5379999876022339 -0.5374000072479248
          -0.683899998664856 -0.6046000123023987 -0.4083000123500824 -0.8932999968528748 -0.3856000006198883 -0.23070000112056732
          -0.25 -0.7936000227928162 -0.5547000169754028 0.296999990940094 -0.8503999710083008 -0.4343999922275543
          -0.6730999946594238 -0.6164000034332275 -0.40869998931884766 -0.23980000615119934 -0.90420001745224 -0.35350000858306885
          -0.008899999782443047 0.9690999984741211 0.24639999866485596 0.3140999972820282 0.8356000185012817 0.4507000148296356
          0.8030999898910522 0.08749999850988388 0.5893999934196472 0.9839000105857849 0.12770000100135803 -0.125
          -0.029200000688433647 0.9957000017166138 0.08799999952316284 0.48159998655319214 0.8622999787330627 -0.15610000491142273
          0.489300012588501 0.8651999831199646 0.10980000346899033 0.02459999918937683 0.989300012588501 -0.14409999549388885
          -0.675599992275238 0.7369999885559082 -0.020400000736117363 0.660099983215332 0.08640000224113464 0.7462000250816345
          0.7724000215530396 -0.5396999716758728 -0.33469998836517334 0.15299999713897705 0.05900000035762787 0.9865000247955322
          -0.713100016117096 -0.21729999780654907 0.6664999723434448 0.8675000071525574 0.3334999978542328 -0.3691999912261963
          0.7972999811172485 -0.5892999768257141 0.13089999556541443 0.14480000734329224 0.29750001430511475 -0.9437000155448914
          -0.43939998745918274 -0.34119999408721924 0.8309999704360962 -0.352400004863739 -0.22769999504089355 0.9077000021934509
          -0.2815000116825104 -0.9592999815940857 -0.019700000062584877 0.22519999742507935 -0.8533999919891357 -0.4702000021934509
          -0.4855000078678131 -0.17900000512599945 0.8557000160217285 -0.6728000044822693 -0.1899999976158142 0.7149999737739563
          -0.3765999972820282 -0.17190000414848328 0.9103000164031982 0.48190000653266907 -0.7832000255584717 -0.3928000032901764
          -0.767300009727478 -0.2919999957084656 0.570900022983551 0.6564000248908997 -0.5372999906539917 -0.5296000242233276
          -0.7940000295639038 -0.4377000033855438 0.42179998755455017 -0.6338000297546387 -0.566100001335144 0.5271000266075134
          -0.7810999751091003 -0.5738999843597412 0.24609999358654022 0.6536999940872192 -0.45239999890327454 -0.6065999865531921
          -0.8963000178337097 -0.43140000104904175 0.10289999842643738 -0.8848000168800354 -0.46380001306533813 -0.04560000076889992
          0.6848999857902527 -0.539900004863739 -0.489300012588501 0.6711000204086304 -0.45820000767707825 -0.5827999711036682
          -0.9042999744415283 -0.3781000077724457 -0.1981000006198883 -0.9027000069618225 -0.3677999973297119 -0.2232999950647354
          0.7541999816894531 -0.6564000248908997 -0.019099999219179153 -0.8583999872207642 -0.3400999903678894 -0.3840999901294708
          -0.48579999804496765 -0.8532000184059143 -0.19009999930858612 0.4059000015258789 -0.8736000061035156 0.2685999870300293
          -0.3222000002861023 -0.684499979019165 0.6539000272750854 -0.6775000095367432 -0.4896000027656555 -0.5489000082015991
          -0.6879000067710876 -0.5964999794960022 -0.41350001096725464 -0.6226999759674072 -0.7652999758720398 0.16300000250339508
          -0.7894999980926514 -0.5827000141143799 -0.19300000369548798 0.8188999891281128 0.5349000096321106 0.20800000429153442
          -0.13930000364780426 -0.6606000065803528 0.7376999855041504 -0.8495000004768372 -0.0019000000320374966 0.5275999903678894
          0.1006999984383583 -0.7195000052452087 0.6872000098228455 0.6398000121116638 -0.727400004863739 0.24819999933242798
          -0.9376000165939331 0.2752000093460083 -0.2125999927520752 0.4797999858856201 -0.8220000267028809 -0.3068999946117401
          0.002400000113993883 -0.1014999970793724 0.9947999715805054 -0.448199987411499 -0.07419999688863754 0.8907999992370605
          0.4984000027179718 -0.862500011920929 -0.08789999783039093 0.5648000240325928 -0.5569000244140625 0.609000027179718
          -0.33320000767707825 -0.21080000698566437 -0.9190000295639038 0.6165000200271606 -0.7843000292778015 0.06960000097751617
          -0.38769999146461487 -0.19539999961853027 0.9007999897003174 -0.38199999928474426 -0.21889999508857727 0.8978999853134155
          -0.4341999888420105 -0.1436000019311905 0.8892999887466431 0.3743000030517578 -0.7968000173568726 -0.47429999709129333
          0.6103000044822693 -0.6477000117301941 -0.4560000002384186 -0.421099990606308 -0.2847000062465668 0.8611999750137329
          -0.5755000114440918 -0.39719998836517334 0.714900016784668 0.4196999967098236 -0.6690000295639038 -0.6134999990463257
          0.3903000056743622 -0.6621000170707703 -0.6396999955177307 0.4731999933719635 -0.6105999946594238 -0.6349999904632568
          -0.5074999928474426 -0.7504000067710876 0.4235000014305115 -0.5662000179290771 -0.541700005531311 0.6212999820709229
          -0.832099974155426 -0.4740999937057495 0.28790000081062317 -0.4708999991416931 -0.7386999726295471 0.4821999967098236
          -0.36890000104904175 -0.6888999938964844 0.6240000128746033 -0.49619999527931213 -0.592199981212616 0.6348000168800354
          0.6373000144958496 -0.49079999327659607 -0.5940999984741211 0.48030000925064087 -0.5447999835014343 -0.6873999834060669
          -0.7348999977111816 -0.6639999747276306 0.1379999965429306 -0.8317999839782715 -0.5547000169754028 0.020800000056624413
          -0.6626999974250793 -0.7148000001907349 0.22360000014305115 0.7325999736785889 -0.2946000099182129 -0.6136000156402588
          -0.83160001039505 -0.555400013923645 -0.004399999976158142 0.7911999821662903 -0.4438000023365021 -0.4207000136375427
          -0.8723999857902527 -0.4472000002861023 -0.1972000002861023 -0.9099000096321106 -0.3447999954223633 -0.2305999994277954
          0.9117000102996826 -0.41040000319480896 -0.020800000056624413 -0.8945000171661377 -0.3124000132083893 -0.3197999894618988
          -0.8648999929428101 -0.2320999950170517 -0.44510000944137573 0.8956999778747559 -0.36640000343322754 0.25189998745918274
          -0.7534999847412109 -0.2451999932527542 -0.6100999712944031 -0.7160000205039978 -0.27970001101493835 -0.6395999789237976
          0.15449999272823334 -0.6111000180244446 0.7763000130653381 0.05620000138878822 -0.16779999434947968 0.9842000007629395
          -0.6848999857902527 0.03440000116825104 0.7279000282287598 0.808899998664856 -0.47200000286102295 0.3504999876022339
          -0.8596000075340271 0.36880001425743103 0.35370001196861267 0.8985000252723694 -0.41760000586509705 0.1356000006198883
          -0.8619999885559082 0.47429999709129333 -0.17890000343322754 0.7979999780654907 -0.5877000093460083 0.13379999995231628
          0.33719998598098755 -0.6940000057220459 -0.6362000107765198 0.7752000093460083 -0.27399998903274536 -0.5692999958992004
          -0.3901999890804291 -0.04089999943971634 0.9197999835014343 -0.26460000872612 0.0632999986410141 0.9623000025749207
          -0.3391999900341034 -0.019099999219179153 0.940500020980835 0.15299999713897705 -0.06589999794960022 0.9860000014305115
          0.5824000239372253 -0.3492000102996826 0.7340999841690063 0.833299994468689 -0.5527999997138977 0.004600000102072954
          -0.5091999769210815 0.08919999748468399 -0.8560000061988831 0.26589998602867126 0.03709999844431877 -0.9632999897003174
          -0.31060001254081726 -0.17759999632835388 0.9337999820709229 -0.3328999876976013 -0.29019999504089355 0.8971999883651733
          0.6779000163078308 -0.4968999922275543 -0.5418000221252441 -0.3346000015735626 -0.5716000199317932 0.7491999864578247
          -0.4262000024318695 -0.4749000072479248 0.7699000239372253 -0.3488999903202057 -0.4104999899864197 0.8424000144004822
          0.49320000410079956 -0.4867999851703644 -0.7210000157356262 0.5759000182151794 -0.48820000886917114 -0.6557999849319458
          -0.45509999990463257 -0.5529999732971191 0.6978999972343445 -0.8363000154495239 -0.39640000462532043 0.37880000472068787
          0.5550000071525574 -0.36800000071525574 -0.7461000084877014 -0.9332000017166138 -0.3528999984264374 0.06750000268220901
          0.6736000180244446 -0.17970000207424164 -0.7168999910354614 -0.8826000094413757 -0.45820000767707825 -0.10540000349283218
          -0.9470000267028809 -0.2897000014781952 -0.1387999951839447 0.8571000099182129 -0.3303999900817871 -0.3952000141143799
          0.7864000201225281 -0.2215999960899353 -0.57669997215271 -0.8931000232696533 -0.3416999876499176 -0.29249998927116394
          -0.8873999714851379 -0.3630000054836273 -0.28439998626708984 -0.8855000138282776 -0.2957000136375427 -0.35850000381469727
          0.9492999911308289 -0.3037000000476837 -0.08089999854564667 -0.8985000252723694 -0.3012000024318695 -0.31940001249313354
          -0.8525999784469604 -0.2946000099182129 -0.43160000443458557 -0.8554999828338623 -0.23309999704360962 -0.46239998936653137
          0.9610000252723694 -0.00930000003427267 0.27639999985694885 -0.7932999730110168 -0.15929999947547913 -0.5875999927520752
          -0.6972000002861023 -0.22059999406337738 -0.6819999814033508 -0.7739999890327454 -0.12610000371932983 -0.6205999851226807
          -0.8632000088691711 0.055399999022483826 -0.5019000172615051 -0.5853000283241272 -0.13570000231266022 -0.7993999719619751
          0.3601999878883362 0.18979999423027039 0.9133999943733215 -0.6191999912261963 0.5065000057220459 0.6000000238418579
          0.9717000126838684 -0.01889999955892563 0.2353000044822693 -0.7491999864578247 0.6164000034332275 0.24220000207424164
          0.9994999766349792 0.030899999663233757 -0.006500000134110451 -0.6902999877929688 0.6960999965667725 -0.19760000705718994
          0.9329000115394592 0.1581999957561493 -0.32350000739097595 0.8421000242233276 0.2897000014781952 -0.45489999651908875
          -0.20509999990463257 0.053700000047683716 0.9772999882698059 0.06340000033378601 0.06750000268220901 0.9957000017166138
          0.5444999933242798 -0.23989999294281006 0.8036999702453613 0.8845999836921692 -0.4505000114440918 0.12070000171661377
          -0.16200000047683716 0.482699990272522 -0.8605999946594238 -0.33250001072883606 -0.25600001215934753 0.9077000021934509
          -0.23829999566078186 -0.3102000057697296 0.9203000068664551 -0.2653999924659729 -0.33709999918937683 0.9032999873161316
          -0.16779999434947968 -0.0738999992609024 0.9829999804496765 0.6927000284194946 -0.5514000058174133 -0.4650000035762787
          -0.5031999945640564 -0.5641000270843506 0.654699981212616 -0.29170000553131104 -0.4945000112056732 0.8187999725341797
          -0.20679999887943268 -0.5038999915122986 0.8385999798774719 -0.24150000512599945 -0.44369998574256897 0.8629999756813049
          0.48969998955726624 -0.4408000111579895 -0.7523000240325928 0.5087000131607056 -0.5473999977111816 -0.6644999980926514
          -0.815500020980835 -0.45159998536109924 0.3619999885559082 -0.741599977016449 -0.429500013589859 0.5152999758720398
          -0.9379000067710876 -0.24300000071525574 0.2475000023841858 0.5647000074386597 -0.3138999938964844 -0.7633000016212463
          0.4399000108242035 -0.366100013256073 -0.8199999928474426 -0.9223999977111816 -0.3747999966144562 0.09369999915361404
          -0.9610000252723694 -0.2718000113964081 0.04989999905228615 0.663100004196167 -0.3142000138759613 -0.6794000267982483
          -0.9641000032424927 -0.2303999960422516 -0.13199999928474426 0.8015000224113464 -0.34529998898506165 -0.48820000886917114
          0.8618999719619751 -0.3822000026702881 -0.33340001106262207 -0.9096999764442444 -0.23440000414848328 -0.3427000045776367
          -0.891700029373169 -0.2567000091075897 -0.37279999256134033 0.8962000012397766 -0.3953000009059906 -0.20160000026226044
          -0.8705999851226807 -0.20260000228881836 -0.44839999079704285 0.7044000029563904 0.3059000074863434 0.640500009059906
          0.9506000280380249 -0.2953000068664551 0.0957999974489212 -0.1298000067472458 0.6101999878883362 0.781499981880188
          -0.7516999840736389 -0.19850000739097595 -0.6288999915122986 0.4912000000476837 0.20000000298023224 0.8478000164031982
          -0.6456000208854675 -0.155799999833107 -0.7476000189781189 -0.4390000104904175 -0.08990000188350677 -0.8939999938011169
          -0.36739999055862427 0.026200000196695328 -0.9297000169754028 0.3172999918460846 0.7064999938011169 0.6326000094413757
          0.503600001335144 0.7763000130653381 0.3790999948978424 -0.5479000210762024 0.7742000222206116 0.31690001487731934
          0.925599992275238 0.3343999981880188 -0.17749999463558197 0.08990000188350677 0.9606999754905701 -0.26269999146461487
          0.1964000016450882 0.782800018787384 -0.590399980545044 -0.1137000024318695 0.09350000321865082 0.9890999794006348
          -0.09839999675750732 0.11649999767541885 0.9883000254631042 0.07930000126361847 0.08799999952316284 0.9929999709129333
          0.5611000061035156 -0.22220000624656677 0.7972999811172485 0.8809000253677368 -0.4512999951839447 0.14270000159740448
          -0.266400009393692 -0.4611000120639801 0.8464000225067139 -0.1704999953508377 -0.45980000495910645 0.8715000152587891
          -0.24120000004768372 -0.49219998717308044 0.8363999724388123 -0.01640000008046627 -0.25189998745918274 0.9675999879837036
          -0.04749999940395355 -0.07039999961853027 0.996399998664856 0.6904000043869019 -0.6322000026702881 -0.3517000079154968
          -0.5386000275611877 -0.4302999973297119 0.724399983882904 -0.47510001063346863 -0.21639999747276306 0.8529000282287598
          -0.7872999906539917 -0.09539999812841415 0.6090999841690063 -0.23919999599456787 -0.36660000681877136 0.8991000056266785
          -0.19099999964237213 -0.4300999939441681 0.8823999762535095 0.3084000051021576 -0.5558000206947327 -0.7720000147819519
          0.3492000102996826 -0.6995999813079834 -0.6233999729156494 -0.9398000240325928 0.03929999843239784 0.3393999934196472
          0.44130000472068787 -0.42250001430511475 -0.7915999889373779 0.34209999442100525 -0.4553000032901764 -0.8220000267028809
          -0.9948999881744385 -0.0478999987244606 0.08829999715089798 0.7005000114440918 -0.46059998869895935 -0.545199990272522
          0.670199990272522 -0.39329999685287476 -0.6294000148773193 -0.995199978351593 -0.018200000748038292 -0.09640000015497208
          0.8119000196456909 -0.43860000371932983 -0.38530001044273376 -0.9325000047683716 -0.1225999966263771 -0.33970001339912415
          0.8932999968528748 -0.39590001106262207 -0.2125999927520752 -0.8633000254631042 -0.11670000106096268 -0.491100013256073
          0.909500002861023 -0.41110000014305115 0.061400000005960464 -0.7947999835014343 -0.08609999716281891 -0.6007999777793884
          -0.765999972820282 -0.06310000270605087 -0.6398000121116638 0.5857999920845032 -0.1817999929189682 0.7897999882698059
          -0.07900000363588333 0.20000000298023224 0.9765999913215637 -0.6747999787330627 -0.10729999840259552 -0.7300999760627747
          -0.40689998865127563 -0.2425999939441681 -0.8806999921798706 -0.22859999537467957 0.018200000748038292 -0.9732999801635742
          0.32350000739097595 0.9452999830245972 0.04089999943971634 0.009999999776482582 0.3073999881744385 0.9514999985694885
          0.13930000364780426 0.25040000677108765 0.9581000208854675 0.5598000288009644 -0.11819999665021896 0.8201000094413757
          0.8116999864578247 -0.5389999747276306 0.22499999403953552 -0.25999999046325684 -0.4138000011444092 0.8725000023841858
          -0.3068000078201294 -0.34209999442100525 0.8881999850273132 -0.296099990606308 -0.2987000048160553 0.9072999954223633
          -0.2395000010728836 -0.4262999892234802 0.8723000288009644 -0.03449999913573265 -0.4699000120162964 0.882099986076355
          0.14720000326633453 -0.18019999563694 0.972599983215332 0.07180000096559525 0.07010000199079514 0.9950000047683716
          0.7831000089645386 -0.5925999879837036 -0.18850000202655792 -0.4546000063419342 -0.13750000298023224 0.8799999952316284
          -0.7524999976158142 0.12370000034570694 0.6467999815940857 0.2345000058412552 -0.6715999841690063 -0.7027999758720398
          0.5314000248908997 -0.6486999988555908 -0.5447999835014343 -0.9406999945640564 0.17409999668598175 0.2912999987602234
          0.1729000061750412 -0.6442999839782715 -0.7450000047683716 0.2280000001192093 -0.5893999934196472 -0.7749999761581421
          -0.9652000069618225 0.2328999936580658 0.11879999935626984 0.5569999814033508 -0.2775000035762787 -0.7827000021934509
          -0.9509999752044678 0.260699987411499 -0.1665000021457672 0.8693000078201294 -0.31369999051094055 -0.382099986076355
          0.8167999982833862 -0.20110000669956207 -0.5407000184059143 -0.9247000217437744 0.125 -0.359499990940094
          -0.880299985408783 0.13689999282360077 -0.4542999863624573 0.9151999950408936 -0.3644999861717224 -0.17180000245571136
          -0.8605999946594238 0.1185000017285347 -0.4952000081539154 -0.7724999785423279 0.11150000244379044 -0.6251000165939331
          0.9293000102043152 -0.3262999951839447 0.1729000061750412 -0.7644000053405762 0.06459999829530716 -0.6414999961853027
          -0.7702000141143799 -0.039900001138448715 -0.6365000009536743 -0.7591000199317932 0.06859999895095825 -0.6473000049591064
          -0.7301999926567078 0.035100001841783524 -0.6823999881744385 -0.6355999708175659 -0.11460000276565552 -0.7634999752044678
          -0.4805000126361847 -0.37229999899864197 -0.7940999865531921 -0.6223000288009644 -0.19930000603199005 -0.7570000290870667
          -0.13050000369548798 -0.5665000081062317 -0.8136000037193298 0.1696999967098236 -0.43849998712539673 -0.8826000094413757
          -0.326200008392334 -0.47679999470710754 -0.8162999749183655 0.1476999968290329 -0.5443999767303467 0.8256999850273132
          0.05990000069141388 -0.29440000653266907 0.9538000226020813 -0.21639999747276306 -0.29170000553131104 0.9316999912261963
          0.45739999413490295 -0.3188000023365021 0.8302000164985657 -0.00559999980032444 0.38530001044273376 0.9228000044822693
          0.1462000012397766 0.4004000127315521 0.9046000242233276 0.16529999673366547 0.4767000079154968 0.8633999824523926
          0.49540001153945923 0.10620000213384628 0.8622000217437744 -0.2734000086784363 -0.15790000557899475 0.9488999843597412
          -0.3549000024795532 -0.10209999978542328 0.9293000102043152 -0.17910000681877136 -0.2500999867916107 0.9514999985694885
          0.35899999737739563 -0.18369999527931213 0.9150999784469604 0.22370000183582306 0.1005999967455864 0.9695000052452087
          0.7477999925613403 -0.6198999881744385 -0.23759999871253967 -0.5569000244140625 0.11400000005960464 0.822700023651123
          0.47540000081062317 -0.6467000246047974 -0.5964999794960022 -0.8988000154495239 0.249099999666214 0.36070001125335693
          0.25940001010894775 -0.7534999847412109 -0.6040999889373779 0.21770000457763672 -0.6502000093460083 -0.7279000282287598
          0.602400004863739 -0.16699999570846558 -0.7806000113487244 0.7675999999046326 -0.32339999079704285 -0.5533999800682068
          0.11739999800920486 -0.474700003862381 -0.8723000288009644 -0.36820000410079956 -0.7527999877929688 -0.5455999970436096
          -0.5875999927520752 -0.5073999762535095 -0.630299985408783 0.26249998807907104 -0.807699978351593 -0.527999997138977
          0.8465999960899353 -0.4219000041484833 -0.3244999945163727 -0.18709999322891235 -0.5879999995231628 -0.786899983882904
          -0.8463000059127808 0.25839999318122864 -0.4659000039100647 0.8567000031471252 -0.4968000054359436 -0.1387999951839447
          -0.7728000283241272 0.2567000091075897 -0.5803999900817871 0.9217000007629395 -0.3799000084400177 -0.0778999999165535
          -0.751800000667572 0.23649999499320984 -0.6154999732971191 0.9629999995231628 -0.2689000070095062 -0.01640000008046627
          0.9093999862670898 -0.29339998960494995 -0.29490000009536743 0.9495999813079834 -0.2890999913215637 -0.12099999934434891
          -0.6725000143051147 0.05559999868273735 -0.7379999756813049 0.23350000381469727 -0.6162999868392944 -0.7520999908447266
          0.6531000137329102 -0.5824000239372253 -0.48399999737739563 -0.5286999940872192 -0.1599999964237213 -0.8335999846458435
          -0.09910000115633011 -0.6478999853134155 -0.755299985408783 0.21170000731945038 -0.12919999659061432 0.9688000082969666
          -0.10639999806880951 -0.04360000044107437 0.993399977684021 0.5879999995231628 -0.1867000013589859 0.7870000004768372
          0.17470000684261322 0.5297999978065491 0.8299000263214111 0.21899999678134918 0.5289000272750854 0.8198999762535095
          0.3765999972820282 0.45320001244544983 0.8079000115394592 0.7577999830245972 -0.6524999737739563 -0.00930000003427267
          0.7565000057220459 -0.2328999936580658 0.6111000180244446 0.8899000287055969 -0.335099995136261 0.3095000088214874
          -0.462799996137619 0.09200000017881393 0.8816999793052673 -0.17520000040531158 0.054499998688697815 0.9829999804496765
          0.48350000381469727 -0.09099999815225601 0.8705999851226807 0.34220001101493835 0.0803999975323677 0.9362000226974487
          0.2680000066757202 0.33090001344680786 0.9047999978065491 0.5922999978065491 -0.7423999905586243 -0.3131999969482422
          0.6884999871253967 -0.7099000215530396 -0.14839999377727509 -0.7653999924659729 0.2222999930381775 0.6039999723434448
          0.6348999738693237 -0.6881999969482422 -0.35109999775886536 -0.9000999927520752 0.3082999885082245 0.3077999949455261