<?xml version="1.0"?>
<VTKFile type="PolyData" version="0.1" byte_order="LittleEndian" header_type="UInt32" compressor="vtkZLibDataCompressor">
  <PolyData>
    <FieldData>
      <Array type="String" Name="MaterialNames" NumberOfTuples="1" format="ascii">
        109 97 116 101 114 105 97 108 95 48 0
      </Array>
      <Array type="String" Name="MaterialLibraries" NumberOfTuples="1" format="ascii">
        109 97 116 101 114 105 97 108 46 109 116 108 0
      </Array>
    </FieldData>
    <Piece NumberOfPoints="120" NumberOfVerts="0" NumberOfLines="0" NumberOfStrips="0" NumberOfPolys="236">
      <PointData Normals="Normals">
        <DataArray type="Float32" Name="Normals" NumberOfComponents="3" format="ascii" RangeMin="0.9999044303149766" RangeMax="1.0000478046999555">
          -0.5940999984741211 -0.6608999967575073 0.4584999978542328 -0.4284000098705292 -0.5 0.7526000142097473
          -0.7434999942779541 -0.46470001339912415 0.48080000281333923 -0.20730000734329224 -0.7321000099182129 0.6488000154495239
          -0.8705999851226807 -0.4767000079154968 0.12139999866485596 -0.7735999822616577 -0.40849998593330383 0.48429998755455017
          -0.9146000146865845 -0.3978999853134155 0.07129999995231628 -0.7049000263214111 -0.7081999778747559 0.03849999979138374
          -0.26109999418258667 -0.8471999764442444 0.4627000093460083 -0.43059998750686646 -0.9017999768257141 0.03669999912381172
          -0.25220000743865967 -0.9599999785423279 0.12189999967813492 -0.8495000004768372 -0.45660001039505005 -0.26420000195503235
          -0.9090999960899353 -0.3093000054359436 -0.2791000008583069 -0.6236000061035156 -0.7135000228881836 -0.31929999589920044
          -0.35690000653266907 -0.8413000106811523 -0.4059000015258789 -0.2930000126361847 -0.8518999814987183 -0.43389999866485596
          -0.7285000085830688 -0.40720000863075256 -0.5508999824523926 -0.46810001134872437 -0.6323999762535095 -0.6172000169754028
          -0.8269000053405762 -0.2549000084400177 0.5012000203132629 -0.5846999883651733 -0.04610000178217888 0.8098999857902527
          -0.864799976348877 0.026200000196695328 0.5013999938964844 -0.3718000054359436 -0.12530000507831573 0.9197999835014343
          -0.06930000334978104 -0.20520000159740448 0.9763000011444092 0.08089999854564667 -0.4002000093460083 0.9128000140190125
          0.3003999888896942 -0.5095000267028809 0.8062999844551086 -0.9387000203132629 -0.33379998803138733 0.08569999784231186
          -0.982699990272522 -0.12229999899864197 0.13910000026226044 -0.1462000012397766 -0.9864000082015991 0.07479999959468842
          0.2752000093460083 -0.7109000086784363 0.6470999717712402 0.5008999705314636 -0.8454999923706055 0.1850000023841858
          -0.9132999777793884 -0.28189998865127563 -0.2937999963760376 -0.92330002784729 -0.20679999887943268 -0.3237000107765198
          -0.14259999990463257 -0.9261999726295471 -0.3488999903202057 0.30469998717308044 -0.8928999900817871 -0.3312999904155731
          -0.8052999973297119 -0.17790000140666962 -0.5654000043869019 -0.6729999780654907 -0.40389999747276306 -0.6195999979972839
          -0.7416999936103821 -0.1655000001192093 -0.6499999761581421 -0.35019999742507935 -0.5203999876976013 -0.7788000106811523
          -0.28529998660087585 -0.6858999729156494 -0.6693999767303467 -0.18799999356269836 -0.6735000014305115 -0.714900016784668
          0.017100000753998756 -0.7731000185012817 -0.6340000033378601 -0.5546000003814697 -0.2881999909877777 -0.7806000113487244
          -0.2554999887943268 0.21299999952316284 0.9430000185966492 -0.6733999848365784 0.28769999742507935 0.6809999942779541
          0.17190000414848328 0.20509999990463257 0.9635000228881836 0.36390000581741333 0.2290000021457672 0.9028000235557556
          0.5145000219345093 0.043699998408555984 0.8564000129699707 0.7174000144004822 0.026499999687075615 0.6962000131607056
          -0.9675999879837036 -0.015599999576807022 0.25209999084472656 -0.7444999814033508 0.25119999051094055 0.6184999942779541
          -0.9452000260353088 0.25380000472068787 0.2053000032901764 0.7789000272750854 -0.10119999945163727 0.6189000010490417
          0.9337000250816345 -0.27709999680519104 0.2264000028371811 -0.9503999948501587 -0.07119999825954437 -0.3025999963283539
          -0.9276999831199646 0.2257000058889389 -0.2971999943256378 0.8669999837875366 -0.427700012922287 -0.2556999921798706
          -0.7914000153541565 0.038600001484155655 -0.6100000143051147 -0.6984000205993652 -0.0697999969124794 -0.7123000025749207
          0.6233000159263611 -0.32829999923706055 -0.7096999883651733 -0.4198000133037567 -0.23160000145435333 -0.8776000142097473
          -0.06539999693632126 -0.3675999939441681 -0.9276999831199646 0.1906999945640564 -0.35030001401901245 -0.9169999957084656
          0.32739999890327454 0.48649999499320984 0.8100000023841858 -0.0934000015258789 0.5060999989509583 0.8574000000953674
          0.6970000267028809 0.429500013589859 0.5741000175476074 0.7006999850273132 0.5501000285148621 0.4544000029563904
          0.7523999810218811 0.3995000123977661 0.5235999822616577 -0.22380000352859497 0.49970000982284546 0.8367000222206116
          -0.7745000123977661 0.5521000027656555 0.3086000084877014 0.8087999820709229 0.3743000030517578 0.4535999894142151
          0.7757999897003174 0.5658000111579895 0.2791999876499176 0.8314999938011169 0.3736000061035156 0.41110000014305115
          0.7889999747276306 0.5882999897003174 0.17710000276565552 0.9054999947547913 0.34130001068115234 0.25209999084472656
          -0.8593999743461609 0.444599986076355 -0.2524999976158142 0.7946000099182129 0.43869999051094055 0.4196000099182129
          0.9275000095367432 0.34630000591278076 0.14079999923706055 0.9229999780654907 0.35339999198913574 -0.15199999511241913
          -0.7450000047683716 0.16940000653266907 -0.6450999975204468 0.9593999981880188 0.02500000037252903 -0.2806999981403351
          -0.4250999987125397 0.0746999979019165 -0.9021000266075134 -0.42879998683929443 -0.21359999477863312 -0.8777999877929688
          -0.16509999334812164 0.2517000138759613 -0.9535999894142151 0.010900000110268593 -0.15800000727176666 -0.9873999953269958
          0.2759999930858612 -0.18230000138282776 -0.9437000155448914 0.651199996471405 -0.10589999705553055 -0.7513999938964844
          -0.1266999989748001 0.028999999165534973 -0.9915000200271606 0.4921000003814697 0.5720000267028809 0.6561999917030334
          0.25130000710487366 0.5813000202178955 0.7738999724388123 -0.3617999851703644 0.8144000172615051 0.45350000262260437
          0.6474000215530396 0.43209999799728394 0.6279000043869019 0.8235999941825867 0.3068000078201294 0.47699999809265137
          0.7929999828338623 0.22519999742507935 0.5659999847412109 -0.6402000188827515 0.7560999989509583 -0.13529999554157257
          0.8610000014305115 0.25119999051094055 0.4422999918460846 -0.7627999782562256 0.2806999981403351 -0.5824000239372253
          -0.5367000102996826 0.6252999901771545 -0.5665000081062317 0.9120000004768372 0.07479999959468842 0.4032999873161316
          0.9962000250816345 -0.03519999980926514 -0.08009999990463257 0.9965999722480774 -0.006899999920278788 -0.08179999887943268
          -0.38449999690055847 0.4702000021934509 -0.7943999767303467 0.05420000106096268 0.3140999972820282 -0.9477999806404114
          0.4311000108718872 0.3644999861717224 -0.8252999782562256 0.28529998660087585 0.3154999911785126 -0.9049999713897705
          0.6467999815940857 0.21299999952316284 -0.7322999835014343 0.4009999930858612 0.7106999754905701 0.578000009059906
          0.73089998960495 0.38580000400543213 0.5629000067710876 -0.0934000015258789 0.9955000281333923 -0.017899999395012856
          0.807200014591217 0.3476000130176544 0.4771000146865845 0.8517000079154968 0.39309999346733093 0.34630000591278076
          0.9358000159263611 0.2702000141143799 0.2264000028371811 0.05860000103712082 0.8766999840736389 -0.477400004863739
          -0.033399999141693115 0.8109999895095825 -0.5841000080108643 0.8019000291824341 0.5454999804496765 -0.243599995970726
          0.9103999733924866 0.296999990940094 -0.288100004196167 0.8848999738693237 0.45980000495910645 -0.07429999858140945
          0.4350999891757965 0.524399995803833 -0.7318999767303467 0.4374000132083893 0.8899000287055969 0.12919999659061432
          0.8496000170707703 0.3799999952316284 0.36570000648498535 0.7648000121116638 0.5504000186920166 -0.33480000495910645
          <InformationKey name="L2_NORM_RANGE" location="vtkDataArray" length="2">
            <Value index="0">
              0.99990443031
            </Value>
            <Value index="1">
              1.0000478047
            </Value>
          </InformationKey>
        </DataArray>
      </PointData>
      <CellData>
        <DataArray type="Int32" Name="MaterialIds" format="ascii" RangeMin="0" RangeMax="0">
          0 0 0 0 0 0
          0 0 0 0 0 0
          0 0 0 0 0 0
          0 0 0 0 0 0
          0 0 0 0 0 0
          0 0 0 0 0 0
          0 0 0 0 0 0
          0 0 0 0 0 0
          0 0 0 0 0 0
          0 0 0 0 0 0
          0 0 0 0 0 0
          0 0 0 0 0 0
          0 0 0 0 0 0
          0 0 0 0 0 0
          0 0 0 0 0 0
          0 0 0 0 0 0
          0 0 0 0 0 0
          0 0 0 0 0 0
          0 0 0 0 0 0
          0 0 0 0 0 0
          0 0 0 0 0 0
          0 0 0 0 0 0
          0 0 0 0 0 0
          0 0 0 0 0 0
          0 0 0 0 0 0
          0 0 0 0 0 0
          0 0 0 0 0 0
          0 0 0 0 0 0
          0 0 0 0 0 0
          0 0 0 0 0 0
          0 0 0 0 0 0
          0 0 0 0 0 0
          0 0 0 0 0 0
          0 0 0 0 0 0
          0 0 0 0 0 0
          0 0 0 0 0 0
          0 0 0 0 0 0
          0 0 0 0 0 0
          0 0 0 0 0 0
          0 0
        </DataArray>
        <DataArray type="Float32" Name="GroupIds" format="ascii" RangeMin="0" RangeMax="0">
          0 0 0 0 0 0
          0 0 0 0 0 0
          0 0 0 0 0 0
          0 0 0 0 0 0
          0 0 0 0 0 0
          0 0 0 0 0 0
          0 0 0 0 0 0
          0 0 0 0 0 0
          0 0 0 0 0 0
          0 0 0 0 0 0
          0 0 0 0 0 0
          0 0 0 0 0 0
          0 0 0 0 0 0
          0 0 0 0 0 0
          0 0 0 0 0 0
          0 0 0 0 0 0
          0 0 0 0 0 0
          0 0 0 0 0 0
          0 0 0 0 0 0
          0 0 0 0 0 0
          0 0 0 0 0 0
          0 0 0 0 0 0
          0 0 0 0 0 0
          0 0 0 0 0 0
          0 0 0 0 0 0
          0 0 0 0 0 0
          0 0 0 0 0 0
          0 0 0 0 0 0
          0 0 0 0 0 0
          0 0 0 0 0 0
          0 0 0 0 0 0
          0 0 0 0 0 0
          0 0 0 0 0 0
          0 0 0 0 0 0
          0 0 0 0 0 0
          0 0 0 0 0 0
          0 0 0 0 0 0
          0 0 0 0 0 0
          0 0 0 0 0 0
          0 0
        </DataArray>
      </CellData>
      <Points>
        <DataArray type="Float32" Name="Points" NumberOfComponents="3" format="ascii" RangeMin="23.507436117543755" RangeMax="26.18417508215949">
          22.748092651367188 6.660987854003906 -2.539954900741577 22.8450927734375 6.81787109375 -2.322052001953125
          22.488250732421875 7.080780029296875 -2.5119550228118896 23.380050659179688 6.4279022216796875 -2.4779510498046875
          22.275634765625 7.099365234375 -3.1429519653320312 22.3541259765625 7.284355163574219 -2.524955987930298
          22.141738891601562 7.421417236328125 -3.1979520320892334 22.646041870117188 6.551018238067627 -3.182952880859375
          23.358322143554688 6.3184661865234375 -2.660949945449829 23.144424438476562 6.170433044433594 -3.164954900741577
          23.659408569335938 6.026810169219971 -3.143950939178467 22.245559692382812 7.131331920623779 -3.7889559268951416
          22.172622680664062 7.39410400390625 -3.8089520931243896 22.64068603515625 6.6378560066223145 -3.8059539794921875
          23.22930908203125 6.330413818359375 -3.794951915740967 23.397232055664062 6.2864460945129395 -3.8149490356445312
          22.360305786132812 7.249985218048096 -4.038956165313721 22.884750366210938 6.771514892578125 -4.191956043243408
          22.087051391601562 7.89776611328125 -2.4919509887695312 22.224624633789062 8.077049255371094 -2.3189539909362793
          22.021682739257812 8.209419250488281 -2.5299530029296875 22.686233520507812 7.590073108673096 -2.1090550422668457
          23.197311401367188 7.144524097442627 -2.049048900604248 23.631057739257812 6.699738025665283 -2.2192540168762207
          24.084808349609375 6.3169097900390625 -2.4869539737701416 21.954757690429688 7.800902843475342 -3.1199491024017334
          21.805465698242188 8.416877746582031 -3.1759490966796875 23.891891479492188 5.9584431648254395 -3.199950933456421
          24.123672485351562 6.223556995391846 -2.578948974609375 24.473648071289062 5.9642791748046875 -3.147948980331421
          22.000411987304688 7.84173583984375 -3.7929530143737793 21.906158447265625 8.311164855957031 -3.8159561157226562
          23.986129760742188 6.0797119140625 -3.8159561157226562 24.339614868164062 6.091370105743408 -3.804955005645752
          22.186965942382812 8.064254760742188 -4.193953990936279 22.552413940429688 7.4864349365234375 -4.488953113555908
          22.479598999023438 7.8063740730285645 -4.504951000213623 23.163070678710938 7.147614002227783 -4.705955982208252
          23.501052856445312 6.7985310554504395 -4.494948863983154 23.657638549804688 6.69281005859375 -4.4529500007629395
          24.119247436523438 6.254936218261719 -4.165955066680908 22.711837768554688 7.6263427734375 -4.687950134277344
          22.528915405273438 8.445419311523438 -2.142051935195923 22.160018920898438 8.716773986816406 -2.513953924179077
          23.009109497070312 7.9889302253723145 -2.0754549503326416 23.499542236328125 7.5052409172058105 -2.0927510261535645
          23.965164184570312 7.0377349853515625 -2.2702560424804688 24.252761840820312 6.82269287109375 -2.5129549503326416
          21.793289184570312 8.627342224121094 -3.1429519653320312 22.046463012695312 8.914901733398438 -2.708954095840454
          21.823623657226562 9.0684814453125 -3.1899490356445312 24.476181030273438 6.564910888671875 -2.760956048965454
          24.743301391601562 6.351172924041748 -3.205955982208252 21.822402954101562 8.639907836914062 -3.7969510555267334
          21.858261108398438 9.092269897460938 -3.8199539184570312 24.762039184570312 6.3378448486328125 -3.828948974609375
          22.051132202148438 8.849212646484375 -4.162956237792969 22.52313232421875 8.411247253417969 -4.660950183868408
          24.457763671875 6.640639781951904 -4.447951793670654 23.044967651367188 7.995215892791748 -5.001953125
          23.507354736328125 7.515717029571533 -4.9819488525390625 23.968704223632812 7.061707019805908 -4.778954029083252
          22.865524291992188 8.748336791992188 -2.3160550594329834 22.538619995117188 9.039390563964844 -2.4809489250183105
          23.337493896484375 8.318572998046875 -2.4909520149230957 23.751083374023438 7.777931213378906 -2.501952886581421
          24.147781372070312 7.2324910163879395 -2.508949041366577 22.404067993164062 9.259735107421875 -2.5989530086517334
          22.035400390625 9.522674560546875 -3.1689529418945312 23.374343872070312 8.364891052246094 -2.5989530086517334
          23.804367065429688 7.870360851287842 -3.1029510498046875 23.744216918945312 8.006660461425781 -3.147948980331421
          24.264114379882812 7.3687520027160645 -3.160949945449829 24.65374755859375 6.832588195800781 -3.127953052520752
          22.061508178710938 9.577583312988281 -3.846954107284546 23.875167846679688 7.887870788574219 -3.268950939178467
          24.338455200195312 7.4184417724609375 -3.8489530086517334 24.675186157226562 6.824982166290283 -3.789954900741577
          22.367782592773438 9.223831176757812 -4.4549560546875 24.436630249023438 7.313713073730469 -4.4749531745910645
          22.89093017578125 8.78204345703125 -5.013954162597656 23.306777954101562 8.312957763671875 -5.163956165313721
          23.305801391601562 8.409378051757812 -5.164955139160156 23.495513916015625 8.184242248535156 -5.167953014373779
          23.814483642578125 7.914185047149658 -5.118949890136719 24.309738159179688 7.440993785858154 -4.6249542236328125
          23.360549926757812 8.334023475646973 -5.212952136993408 22.967117309570312 8.894149780273438 -2.4999539852142334
          22.735366821289062 9.594863891601562 -2.8559489250183105 22.395523071289062 9.885635375976562 -3.1889500617980957
          23.188522338867188 9.134796142578125 -2.919951915740967 23.6785888671875 8.701904296875 -3.435950994491577
          23.400344848632812 8.991439819335938 -3.1629559993743896 22.304489135742188 9.994674682617188 -3.830955982208252
          24.136123657226562 8.191422462463379 -3.8459548950195312 22.439620971679688 9.368598937988281 -4.4819488525390625
          22.572402954101562 9.761062622070312 -4.4519500732421875 24.221664428710938 8.210257530212402 -4.057952880859375
          24.430862426757812 7.583733081817627 -4.450951099395752 24.497726440429688 7.933661937713623 -4.502953052520752
          22.734909057617188 9.574813842773438 -4.7579498291015625 23.202651977539062 9.159881591796875 -5.008948802947998
          23.668548583984375 8.711219787597656 -5.001953125 23.422775268554688 8.369033813476562 -5.168952941894531
          24.173492431640625 8.244049072265625 -4.898955821990967 22.955612182617188 9.833847045898438 -3.2179489135742188
          23.322708129882812 9.306320190429688 -3.1679530143737793 22.783889770507812 10.171875 -3.825951099395752
          23.536331176757812 9.485977172851562 -3.670952081680298 23.854965209960938 8.871109008789062 -3.8559489250183105
          23.634979248046875 9.436752319335938 -3.8869550228118896 23.064346313476562 9.963508605957031 -4.295951843261719
          22.948684692382812 9.841644287109375 -4.513954162597656 23.913711547851562 8.925735473632812 -4.490952014923096
          23.696502685546875 9.361907958984375 -4.504951000213623 24.368209838867188 8.479461669921875 -4.460953235626221
          23.496109008789062 9.51922607421875 -4.713951110839844 23.226791381835938 10.121077537536621 -3.847954034805298
          23.582504272460938 9.634108543395996 -3.8269500732421875 23.678878784179688 9.71929931640625 -4.442955017089844
          <InformationKey name="L2_NORM_RANGE" location="vtkDataArray" length="2">
            <Value index="0">
              23.507436118
            </Value>
            <Value index="1">
              26.184175082
            </Value>
          </InformationKey>
        </DataArray>
      </Points>
      <Verts>
        <DataArray type="Int64" Name="connectivity" format="ascii" RangeMin="1e+299" RangeMax="-1e+299">
        </DataArray>
        <DataArray type="Int64" Name="offsets" format="ascii" RangeMin="1e+299" RangeMax="-1e+299">
        </DataArray>
      </Verts>
      <Lines>
        <DataArray type="Int64" Name="connectivity" format="ascii" RangeMin="1e+299" RangeMax="-1e+299">
        </DataArray>
        <DataArray type="Int64" Name="offsets" format="ascii" RangeMin="1e+299" RangeMax="-1e+299">
        </DataArray>
      </Lines>
      <Strips>
        <DataArray type="Int64" Name="connectivity" format="ascii" RangeMin="1e+299" RangeMax="-1e+299">
        </DataArray>
        <DataArray type="Int64" Name="offsets" format="ascii" RangeMin="1e+299" RangeMax="-1e+299">
        </DataArray>
      </Strips>
      <Polys>
        <DataArray type="Int64" Name="connectivity" format="ascii" RangeMin="0" RangeMax="119">
          0 1 2 1 0 3
          4 5 6 2 5 4
          2 4 0 0 4 7
          8 3 0 8 0 9
          9 0 7 8 9 10
          11 4 6 12 11 6
          7 4 13 13 4 11
          9 7 14 14 7 13
          15 10 9 14 15 9
          11 12 16 13 11 16
          17 13 16 14 13 17
          15 14 17 18 19 20
          18 5 21 19 18 21
          5 2 1 5 1 21
          21 1 22 3 23 1
          1 23 22 23 3 24
          25 18 20 26 25 20
          5 25 6 5 18 25
          10 27 28 8 10 28
          8 28 24 8 24 3
          28 27 29 30 25 26
          31 30 26 6 30 12
          25 30 6 27 15 32
          10 15 27 33 29 27
          32 33 27 30 31 34
          35 34 36 16 34 35
          16 30 34 16 12 30
          16 37 17 35 37 16
          38 17 37 38 39 17
          39 15 17 32 15 40
          40 15 39 33 32 40
          35 36 41 37 35 41
          19 42 43 20 19 43
          21 44 19 19 44 42
          22 45 21 21 45 44
          23 46 22 22 46 45
          46 23 24 47 46 24
          48 49 50 48 43 49
          48 26 43 26 20 43
          24 51 47 28 51 24
          51 28 29 52 51 29
          53 48 50 54 53 50
          26 53 31 48 53 26
          29 33 52 52 33 55
          53 54 56 34 56 57
          34 53 56 34 31 53
          34 57 36 39 58 40
          40 58 33 33 58 55
          36 57 41 41 57 59
          37 41 60 41 59 60
          39 38 37 39 37 61
          61 37 60 58 39 61
          42 62 63 43 42 63
          64 62 44 44 62 42
          44 45 65 64 44 65
          45 46 66 65 45 66
          46 47 66 49 67 68
          50 49 68 63 49 43
          67 49 63 69 70 71
          69 64 70 64 65 70
          66 72 65 72 70 65
          47 51 73 47 73 66
          66 73 72 51 52 73
          50 68 54 68 74 54
          70 75 71 72 75 70
          76 75 72 76 72 77
          72 73 77 52 55 77
          73 52 77 54 74 78
          56 54 78 78 57 56
          58 76 77 79 76 58
          77 55 58 57 78 80
          81 80 82 81 59 80
          59 57 80 83 59 81
          83 84 59 84 60 59
          61 60 85 60 84 85
          79 58 85 85 58 61
          81 82 86 83 81 86
          62 87 63 62 64 87
          67 88 89 68 67 89
          87 67 63 87 90 67
          90 88 67 91 92 90
          69 91 90 69 90 87
          69 87 64 69 71 91
          68 89 74 89 93 74
          75 94 91 75 91 71
          94 75 76 95 78 74
          95 74 96 96 74 93
          97 98 99 97 94 98
          94 76 98 76 79 98
          95 96 100 78 95 100
          78 100 80 80 100 101
          82 102 103 82 80 102
          80 101 102 103 84 83
          103 102 84 102 104 84
          99 98 85 99 85 104
          104 85 84 79 85 98
          82 103 86 83 86 103
          88 105 89 88 90 106
          105 88 106 90 92 106
          105 107 89 89 107 93
          108 105 106 109 110 108
          91 109 108 91 108 106
          91 106 92 91 94 109
          111 112 96 111 96 107
          107 96 93 113 110 109
          114 110 113 94 97 115
          94 115 109 109 115 113
          97 99 115 96 112 100
          112 111 116 112 116 100
          100 116 101 114 113 102
          114 102 116 116 102 101
          104 102 113 115 104 113
          99 104 115 105 117 107
          105 108 118 117 105 118
          108 110 118 107 117 111
          111 117 119 119 117 118
          110 114 119 118 110 119
          111 119 116 114 116 119
        </DataArray>
        <DataArray type="Int64" Name="offsets" format="ascii" RangeMin="3" RangeMax="708">
          3 6 9 12 15 18
          21 24 27 30 33 36
          39 42 45 48 51 54
          57 60 63 66 69 72
          75 78 81 84 87 90
          93 96 99 102 105 108
          111 114 117 120 123 126
          129 132 135 138 141 144
          147 150 153 156 159 162
          165 168 171 174 177 180
          183 186 189 192 195 198
          201 204 207 210 213 216
          219 222 225 228 231 234
          237 240 243 246 249 252
          255 258 261 264 267 270
          273 276 279 282 285 288
          291 294 297 300 303 306
          309 312 315 318 321 324
          327 330 333 336 339 342
          345 348 351 354 357 360
          363 366 369 372 375 378
          381 384 387 390 393 396
          399 402 405 408 411 414
          417 420 423 426 429 432
          435 438 441 444 447 450
          453 456 459 462 465 468
          471 474 477 480 483 486
          489 492 495 498 501 504
          507 510 513 516 519 522
          525 528 531 534 537 540
          543 546 549 552 555 558
          561 564 567 570 573 576
          579 582 585 588 591 594
          597 600 603 606 609 612
          615 618 621 624 627 630
          633 636 639 642 645 648
          651 654 657 660 663 666
          669 672 675 678 681 684
          687 690 693 696 699 702
          705 708
        </DataArray>
      </Polys>
    </Piece>
  </PolyData>
</VTKFile>
