<?xml version="1.0"?>
<VTKFile type="PolyData" version="0.1" byte_order="LittleEndian" header_type="UInt32" compressor="vtkZLibDataCompressor">
  <PolyData>
    <FieldData>
      <Array type="String" Name="MaterialNames" NumberOfTuples="1" format="ascii">
        109 97 116 101 114 105 97 108 95 48 0
      </Array>
      <Array type="String" Name="MaterialLibraries" NumberOfTuples="1" format="ascii">
        109 97 116 101 114 105 97 108 46 109 116 108 0
      </Array>
    </FieldData>
    <Piece NumberOfPoints="540" NumberOfVerts="0" NumberOfLines="0" NumberOfStrips="0" NumberOfPolys="1031">
      <PointData Normals="Normals">
        <DataArray type="Float32" Name="Normals" NumberOfComponents="3" format="ascii" RangeMin="0.999922922610622" RangeMax="1.0000688807750295">
          -0.7504000067710876 -0.6406999826431274 0.1624000072479248 -0.8575000166893005 -0.5116999745368958 0.05429999902844429
          -0.7731000185012817 -0.6341000199317932 0.01640000008046627 0.9417999982833862 0.09790000319480896 -0.32170000672340393
          0.9158999919891357 -0.050700001418590546 -0.39820000529289246 0.9283999800682068 0.09130000323057175 -0.36010000109672546
          -0.3124000132083893 0.12269999831914902 0.9419999718666077 -0.07689999788999557 0.21850000321865082 0.9728000164031982
          0.04309999942779541 0.45669999718666077 0.8885999917984009 0.8537999987602234 -0.511900007724762 -0.09510000050067902
          0.777899980545044 -0.24729999899864197 -0.5777000188827515 0.7953000068664551 -0.39739999175071716 -0.4578999876976013
          0.2840999960899353 0.9587000012397766 0.011300000362098217 0.0617000013589859 0.9334999918937683 0.353300005197525
          0.27250000834465027 0.9157000184059143 0.295199990272522 -0.9918000102043152 -0.03889999911189079 0.121799997985363
          -0.972599983215332 -0.20260000228881836 0.11420000344514847 -0.9937000274658203 -0.10429999977350235 0.04010000079870224
          0.3950999975204468 -0.010599999688565731 -0.9186000227928162 0.2094999998807907 0.19249999523162842 -0.9587000012397766
          0.2662999927997589 -0.2558000087738037 -0.9293000102043152 -0.6726999878883362 -0.4352000057697296 -0.5983999967575073
          -0.26840001344680786 0.11509999632835388 -0.9563999772071838 -0.7167999744415283 0.5812000036239624 -0.3853999972343445
          0.5224000215530396 -0.09790000319480896 -0.847100019454956 0.949999988079071 0.06030000001192093 -0.30630001425743103
          0.9520999789237976 -0.05950000137090683 -0.29989999532699585 0.9362000226974487 0.24529999494552612 -0.251800000667572
          -0.835099995136261 -0.30390000343322754 0.4586000144481659 -0.9025999903678894 -0.05480000004172325 0.4269999861717224
          -0.9477999806404114 -0.14380000531673431 0.28450000286102295 -0.9553999900817871 0.28279998898506165 -0.08529999852180481
          -0.9904000163078308 0.1370999962091446 -0.015699999406933784 -0.9785000085830688 0.18889999389648438 -0.08250000327825546
          0.8826000094413757 -0.16009999811649323 0.44200000166893005 0.7907000184059143 -0.1290999948978424 0.5983999967575073
          0.8626000285148621 -0.20340000092983246 0.46309998631477356 0.4569999873638153 0.5787000060081482 -0.6754999756813049
          0.5823000073432922 0.5289000272750854 -0.6173999905586243 0.41370001435279846 0.2287999987602234 -0.8812000155448914
          0.9480000138282776 0.046799998730421066 0.3147999942302704 0.9624000191688538 0.23880000412464142 0.1298999935388565
          0.9412000179290771 -0.030400000512599945 0.33649998903274536 -0.8859000205993652 -0.32199999690055847 -0.33379998803138733
          -0.43779999017715454 -0.19509999454021454 0.8776999711990356 -0.2770000100135803 -0.366100013256073 0.8884000182151794
          -0.1597999930381775 -0.10540000349283218 0.9815000295639038 0.5665000081062317 -0.7340999841690063 -0.37439998984336853
          0.6492000222206116 -0.7516000270843506 -0.11659999936819077 0.3903999924659729 -0.9154999852180481 0.09709999710321426
          -0.9352999925613403 -0.35190001130104065 -0.03539999946951866 -0.8450999855995178 -0.5268999934196472 0.09080000221729279
          -0.8891000151634216 -0.4569999873638153 -0.02449999935925007 0.9153000116348267 -0.002300000051036477 -0.4027999937534332
          0.9532999992370605 0.2994000017642975 0.040300000458955765 0.84170001745224 0.035999998450279236 -0.5386999845504761
          -0.526199996471405 0.8500999808311462 0.019700000062584877 -0.517799973487854 0.8147000074386597 0.26109999418258667
          -0.2865000069141388 0.9574999809265137 0.03440000116825104 0.9538000226020813 0.16920000314712524 0.2484000027179718
          0.9918000102043152 -0.07660000026226044 -0.10220000147819519 0.9915000200271606 0.12700000405311584 0.02669999934732914
          -0.019200000911951065 -0.9961000084877014 -0.08659999817609787 0.30660000443458557 -0.9398000240325928 -0.15070000290870667
          -0.33809998631477356 -0.894599974155426 -0.2921999990940094 -0.12780000269412994 0.9682999849319458 0.21469999849796295
          -0.1469999998807907 0.9154999852180481 0.37450000643730164 0.05620000138878822 0.9684000015258789 0.24289999902248383
          -0.9262999892234802 0.2903999984264374 0.23989999294281006 -0.9318000078201294 0.21140000224113464 0.29490000009536743
          -0.8306000232696533 0.39010000228881836 0.39750000834465027 -0.7376000285148621 -0.6693999767303467 0.08900000154972076
          -0.31779998540878296 -0.9398999810218811 -0.12449999898672104 -0.7055000066757202 -0.7059999704360962 -0.06260000169277191
          0.2879999876022339 0.883899986743927 0.3684000074863434 0.427700012922287 0.9039000272750854 -0.006899999920278788
          -0.1289999932050705 0.9606999754905701 0.24570000171661377 0.7785999774932861 -0.6266000270843506 -0.03359999880194664
          0.8881000280380249 -0.4025000035762787 -0.22179999947547913 0.8066999912261963 -0.42179998755455017 -0.4138999879360199
          0.9472000002861023 0.14650000631809235 0.28519999980926514 0.9311000108718872 0.060100000351667404 0.35989999771118164
          0.9670000076293945 0.22120000422000885 -0.12630000710487366 0.23080000281333923 0.823199987411499 0.5185999870300293
          0.06069999933242798 0.8133999705314636 0.578499972820282 0.15539999306201935 0.6832000017166138 0.7135000228881836
          0.6262000203132629 -0.5357999801635742 -0.5663999915122986 -0.019999999552965164 -0.5317000150680542 -0.8467000126838684
          0.597599983215332 -0.7493000030517578 -0.28529998660087585 0.0754999965429306 -0.7408999800682068 0.6674000024795532
          -0.1356000006198883 -0.6875 0.7134000062942505 -0.013899999670684338 -0.8402000069618225 0.5422000288963318
          -0.5418999791145325 -0.6527000069618225 0.5295000076293945 -0.7120000123977661 -0.5547000169754028 0.43050000071525574
          -0.6840999722480774 -0.629800021648407 0.36800000071525574 0.7073000073432922 0.4603999853134155 -0.5364000201225281
          0.8759999871253967 0.38519999384880066 -0.2903999984264374 0.7304999828338623 0.17919999361038208 -0.6589999794960022
          0.20749999582767487 0.9538000226020813 -0.21739999949932098 -0.14830000698566437 0.9889000058174133 0.002400000113993883
          0.5227000117301941 0.02850000001490116 -0.8519999980926514 0.9811000227928162 0.019999999552965164 -0.19220000505447388
          -0.5828999876976013 -0.25780001282691956 -0.7705000042915344 -0.5425000190734863 -0.4596000015735626 -0.7031999826431274
          0.3652999997138977 -0.8436999917030334 0.39340001344680786 0.5159000158309937 -0.7404999732971191 0.4307999908924103
          0.6100000143051147 -0.7835999727249146 0.1177000030875206 0.5180000066757202 -0.31940001249313354 -0.7935000061988831
          0.08860000222921371 -0.1768999993801117 -0.9801999926567078 0.9765999913215637 0.20759999752044678 0.05689999833703041
          0.7746999859809875 0.5034999847412109 0.38260000944137573 0.8112999796867371 0.583899974822998 0.02800000086426735
          0.9061999917030334 -0.42289999127388 -0.00570000009611249 0.7641000151634216 -0.6164000034332275 -0.19030000269412994
          -0.07919999957084656 -0.4505000114440918 0.88919997215271 0.2524000108242035 -0.4345000088214874 0.8646000027656555
          0.35659998655319214 -0.2685999870300293 0.8948000073432922 0.5796999931335449 -0.16089999675750732 0.798799991607666
          0.5077000260353088 -0.3418000042438507 0.7907999753952026 0.6904000043869019 -0.17010000348091125 0.7031000256538391
          0.8198000192642212 0.3955000042915344 -0.4142000079154968 -0.7930999994277954 0.5746999979019165 -0.20170000195503235
          -0.9027000069618225 0.337799996137619 -0.26660001277923584 -0.8123999834060669 0.5760999917984009 -0.09019999951124191
          -0.6230000257492065 0.6388000249862671 0.4514000117778778 -0.6449999809265137 0.5378000140190125 0.5429999828338623
          -0.13099999725818634 0.5616000294685364 0.8169999718666077 -0.2727000117301941 0.38089999556541443 0.8834999799728394
          -0.3619999885559082 0.906000018119812 0.21940000355243683 -0.29319998621940613 0.8776999711990356 0.3790000081062317
          -0.597000002861023 0.6611999869346619 0.4544000029563904 0.9394999742507935 0.2689000070095062 -0.21209999918937683
          0.9121000170707703 0.3377000093460083 0.23250000178813934 0.989300012588501 -0.14100000262260437 -0.03610000014305115
          0.7310000061988831 -0.5745999813079834 -0.36809998750686646 0.8733999729156494 -0.19020000100135803 -0.44830000400543213
          -0.4982999861240387 0.6139000058174133 -0.6122999787330627 0.4108999967575073 0.6234999895095825 -0.6650999784469604
          -0.3555000126361847 0.6970999836921692 -0.6226000189781189 -0.40799999237060547 -0.8806999921798706 0.24050000309944153
          -0.5512999892234802 -0.8026000261306763 0.22789999842643738 -0.39010000228881836 -0.9174000024795532 0.07819999754428864
          -0.3203999996185303 -0.7732999920845032 0.5471000075340271 -0.06469999998807907 -0.9897000193595886 0.12770000100135803
          -0.19050000607967377 -0.9771000146865845 0.09449999779462814 -0.44359999895095825 -0.8949000239372253 0.04809999838471413
          -0.4422000050544739 -0.8966000080108643 -0.023600000888109207 -0.19419999420642853 -0.9678999781608582 -0.1597999930381775
          0.3440999984741211 -0.8409000039100647 -0.41769999265670776 0.6080999970436096 0.7067999839782715 0.36149999499320984
          0.8260999917984009 0.45010000467300415 -0.3391999900341034 0.9394000172615051 -0.20200000703334808 0.27709999680519104
          0.17669999599456787 -0.9521999955177307 0.2492000013589859 0.3001999855041504 -0.9075999855995178 0.29350000619888306
          0.3215000033378601 -0.9459999799728394 0.04259999841451645 0.9485999941825867 -0.06239999830722809 -0.31040000915527344
          0.05180000141263008 -0.9959999918937683 0.07280000299215317 0.10939999669790268 -0.9351000189781189 0.33709999918937683
          0.37119999527931213 -0.8471999764442444 0.38019999861717224 0.3617999851703644 -0.8097000122070312 0.4620000123977661
          0.21199999749660492 -0.8671000003814697 0.45089998841285706 0.902400016784668 -0.3961000144481659 0.1696999967098236
          0.9185000061988831 -0.3506999909877777 0.18230000138282776 -0.8718000054359436 0.3467999994754791 -0.34599998593330383
          -0.753000020980835 0.061900001019239426 -0.6550999879837036 -0.6500999927520752 -0.4708999991416931 -0.5963000059127808
          0.09390000253915787 -0.02410000003874302 -0.9952999949455261 0.4657000005245209 0.34040001034736633 -0.8169000148773193
          -0.914900004863739 -0.3068999946117401 0.2621999979019165 -0.8964999914169312 -0.43970000743865967 -0.05400000140070915
          0.3176000118255615 0.9469000101089478 -0.049800001084804535 0.2802000045776367 0.9592999815940857 -0.0357000008225441
          0.4636000096797943 0.8614000082015991 -0.20759999752044678 0.13940000534057617 0.9660000205039978 -0.21780000627040863
          0.41620001196861267 -0.795799970626831 -0.4399000108242035 -0.02370000071823597 -0.951200008392334 -0.3075999915599823
          0.05400000140070915 0.7336999773979187 0.677299976348877 -0.11990000307559967 0.748199999332428 0.6524999737739563
          -0.1582999974489212 0.6863999962806702 0.7098000049591064 -0.4401000142097473 0.7102000117301941 0.5494999885559082
          -0.4350999891757965 0.6425999999046326 0.6305999755859375 -0.27399998903274536 0.7247999906539917 0.632099986076355
          -0.6517999768257141 -0.5188000202178955 0.5532000064849854 -0.42179998755455017 -0.656499981880188 0.6254000067710876
          -0.47119998931884766 -0.38179999589920044 0.7950999736785889 -0.47920000553131104 -0.5228999853134155 0.7049999833106995
          -0.3424000144004822 -0.4918000102043152 0.8004999756813049 0.7123000025749207 0.3686999976634979 0.5971999764442444
          0.09759999811649323 0.08470000326633453 0.991599977016449 0.3788999915122986 0.5746999979019165 0.7253000140190125
          0.5738000273704529 0.024900000542402267 0.8185999989509583 0.6972000002861023 0.05979999899864197 0.7143999934196472
          0.6122999787330627 0.19609999656677246 0.7659000158309937 0.5199999809265137 0.7095000147819519 0.475600004196167
          0.46880000829696655 0.6546000242233276 0.5931000113487244 0.6499000191688538 0.5295000076293945 0.545199990272522
          -0.6639999747276306 -0.4185999929904938 -0.6195999979972839 0.32690000534057617 0.796500027179718 -0.5087000131607056
          0.0502999983727932 0.6320000290870667 -0.7732999920845032 -0.07020000368356705 0.9337999820709229 -0.3508000075817108
          -0.5335999727249146 -0.7031000256538391 0.4700999855995178 -0.1762000024318695 -0.7687000036239624 0.6148999929428101
          0.08179999887943268 -0.7192999720573425 0.6898999810218811 0.9031000137329102 -0.423799991607666 -0.06939999759197235
          0.6014000177383423 -0.7132999897003174 -0.3598000109195709 0.858299970626831 -0.2750999927520752 -0.43320000171661377
          -0.05510000139474869 -0.9973000288009644 -0.04820000007748604 0.3928999900817871 -0.9049999713897705 -0.16300000250339508
          0.28220000863075256 -0.9524999856948853 -0.11500000208616257 0.5113999843597412 0.7613000273704529 0.3986000120639801
          0.5800999999046326 0.3434000015258789 -0.7386000156402588 0.5687999725341797 0.6840999722480774 -0.45660001039505005
          0.7384999990463257 -0.057999998331069946 -0.6717000007629395 0.9434999823570251 -0.13109999895095825 -0.3043999969959259
          0.7825000286102295 -0.33070001006126404 -0.5275999903678894 -0.01269999984651804 -0.25949999690055847 -0.9656999707221985
          -0.13950000703334808 -0.8248000144958496 -0.5479000210762024 -0.7996000051498413 0.5982999801635742 0.051600001752376556
          -0.8009999990463257 0.5074999928474426 0.3174999952316284 0.05889999866485596 -0.8745999932289124 0.4812000095844269
          -0.16290000081062317 -0.941100001335144 -0.2964000105857849 0.010700000450015068 -0.9937000274658203 0.11129999905824661
          -0.7093999981880188 -0.29319998621940613 -0.640999972820282 -0.7127000093460083 0.08060000091791153 -0.6967999935150146
          -0.4083000123500824 -0.30809998512268066 -0.8593000173568726 -0.527400016784668 0.28349998593330383 0.8008999824523926
          -0.6502000093460083 -0.03189999982714653 0.7591000199317932 -0.5436999797821045 0.05220000073313713 0.8375999927520752
          -0.7299000024795532 0.016300000250339508 0.6833999752998352 -0.6830999851226807 -0.24940000474452972 0.6865000128746033
          -0.5990999937057495 -0.2515999972820282 0.7601000070571899 -0.18709999322891235 0.17720000445842743 -0.9661999940872192
          0.5928999781608582 -0.4855000078678131 -0.6424000263214111 0.7383000254631042 0.39660000801086426 -0.5455999970436096
          0.8878999948501587 -0.2816999852657318 0.3635999858379364 0.3953999876976013 -0.9088000059127808 -0.1331000030040741
          0.7964000105857849 0.5552999973297119 0.2393999993801117 0.833899974822998 0.35910001397132874 0.41909998655319214
          0.8765000104904175 -0.3294999897480011 -0.35089999437332153 0.7093999981880188 0.3637000024318695 -0.6036999821662903
          0.2305999994277954 0.3458000123500824 -0.909500002861023 -0.5264999866485596 0.3919000029563904 -0.7544999718666077
          0.4140999913215637 0.10679999738931656 -0.9039000272750854 0.2648000121116638 0.948199987411499 -0.17579999566078186
          0.8878999948501587 -0.20720000565052032 -0.4106000065803528 0.7590000033378601 -0.6471999883651733 0.07039999961853027
          0.8848999738693237 -0.46070000529289246 0.06840000301599503 0.9438999891281128 0.09040000289678574 0.3174999952316284
          -0.17159999907016754 0.9430000185966492 0.2849999964237213 0.9538000226020813 -0.026900000870227814 -0.2992999851703644
          0.3637999892234802 0.24699999392032623 -0.8981000185012817 -0.11590000241994858 0.600600004196167 -0.791100025177002
          0.8083999752998352 -0.3522000014781952 0.4715999960899353 0.5992000102996826 -0.6294999718666077 0.49470001459121704
          0.8151999711990356 -0.5268999934196472 0.24060000479221344 -0.09549999982118607 -0.9941999912261963 0.050200000405311584
          0.10859999805688858 -0.9830999970436096 -0.14720000326633453 0.4771000146865845 0.8604000210762024 -0.17900000512599945
          -0.6916999816894531 0.27730000019073486 0.6668999791145325 -0.7465999722480774 0.6324999928474426 0.2061000019311905
          -0.42719998955726624 0.8939999938011169 0.13539999723434448 -0.9158999919891357 0.39480000734329224 0.07199999690055847
          -0.9869999885559082 0.120899997651577 0.10610000044107437 -0.8281999826431274 0.2800000011920929 -0.4855000078678131
          -0.5468999743461609 0.6908000111579895 -0.4729999899864197 -0.44670000672340393 0.2685000002384186 0.8533999919891357
          0.016200000420212746 0.9000999927520752 0.43529999256134033 -0.11309999972581863 -0.3043999969959259 0.9458000063896179
          -0.9125000238418579 -0.3984000086784363 0.093299999833107 0.9397000074386597 0.24580000340938568 0.2378000020980835
          -0.6026999950408936 -0.5149000287055969 -0.6096000075340271 0.7540000081062317 0.07750000059604645 -0.6521999835968018
          0.6733999848365784 -0.08950000256299973 -0.7337999939918518 0.7411999702453613 -0.29339998960494995 -0.6036999821662903
          0.8077999949455261 -0.35339999198913574 -0.4717000126838684 0.6294999718666077 -0.5943999886512756 -0.5004000067710876
          -0.23170000314712524 -0.972599983215332 0.018699999898672104 -0.22010000050067902 -0.9562000036239624 0.19280000030994415
          0.37209999561309814 -0.8779000043869019 0.30140000581741333 0.27649998664855957 0.5127999782562256 0.8127999901771545
          -0.6173999905586243 0.3682999908924103 0.6951000094413757 0.02630000002682209 0.38679999113082886 0.9218000173568726
          -0.7024000287055969 0.6700999736785889 -0.23989999294281006 -0.945900022983551 0.32280001044273376 0.03180000185966492
          -0.992900013923645 -0.11659999936819077 -0.02250000089406967 -0.9456999897956848 -0.3249000012874603 0.006399999838322401
          -0.9857000112533569 -0.12399999797344208 0.1137000024318695 -0.9739999771118164 0.17679999768733978 0.14139999449253082
          -0.9711999893188477 0.2298000007867813 0.0632999986410141 -0.9879999756813049 0.15459999442100525 0.0038999998942017555
          0.15129999816417694 -0.9434000253677368 -0.29510000348091125 0.6450999975204468 -0.6927000284194946 -0.32249999046325684
          0.8658999800682068 -0.30709999799728394 -0.39489999413490295 0.20069999992847443 -0.07249999791383743 -0.9769999980926514
          0.7530999779701233 -0.16619999706745148 -0.6366000175476074 0.45820000767707825 0.8503000140190125 0.258899986743927
          0.6157000064849854 0.7847999930381775 -0.07129999995231628 0.39629998803138733 0.8924999833106995 -0.21549999713897705
          0.7376000285148621 -0.359499990940094 -0.5716000199317932 0.15109999477863312 0.9871000051498413 -0.05350000038743019
          0.29649999737739563 0.7260000109672546 -0.6205000281333923 -0.15219999849796295 0.9850999712944031 -0.08030000329017639
          -0.3222000002861023 0.9434999823570251 -0.0778999999165535 0.3700000047683716 -0.8907999992370605 0.2639000117778778
          0.6804999709129333 -0.7300999760627747 -0.06289999932050705 0.4316999912261963 -0.7124999761581421 0.5530999898910522
          0.1665000021457672 -0.7620999813079834 0.6255999803543091 0.800000011920929 0.042100001126527786 0.5985000133514404
          0.7166000008583069 0.2969000041484833 0.6310999989509583 0.8294000029563904 0.3059000074863434 0.4674000144004822
          0.902899980545044 0.12960000336170197 0.4099000096321106 -0.3425000011920929 -0.8112000226974487 -0.4740000069141388
          0.2712000012397766 0.7105000019073486 0.6492999792098999 0.4189999997615814 0.40049999952316284 0.8148999810218811
          0.5300999879837036 0.44699999690055847 0.7204999923706055 0.08669999986886978 0.647599995136261 0.7570000290870667
          0.5652999877929688 -0.6064000129699707 -0.5591999888420105 0.5608000159263611 -0.602400004863739 -0.5679000020027161
          0.6635000109672546 -0.13220000267028809 -0.7364000082015991 0.2849999964237213 0.36239999532699585 -0.8873000144958496
          0.5081999897956848 -0.04670000076293945 -0.8600000143051147 0.7645000219345093 0.16859999299049377 -0.6222000122070312
          -0.8913000226020813 -0.4359999895095825 -0.12470000237226486 -0.6068999767303467 -0.32589998841285706 0.7249000072479248
          -0.35920000076293945 -0.37400001287460327 0.8550999760627747 0.8675000071525574 -0.490200012922287 0.08470000326633453
          0.6873999834060669 -0.6642000079154968 0.2935999929904938 0.5909000039100647 -0.7524999976158142 0.290800005197525
          0.9677000045776367 0.19200000166893005 -0.163100004196167 0.8848999738693237 0.4607999920845032 0.06750000268220901
          0.8440999984741211 0.5317000150680542 0.06949999928474426 0.6031000018119812 0.6726999878883362 -0.428600013256073
          0.6173999905586243 0.5830000042915344 -0.5281000137329102 0.9192000031471252 -0.010400000028312206 -0.3937000036239624
          -0.5288000106811523 0.8310999870300293 0.17239999771118164 -0.7195000052452087 0.6588000059127808 0.21960000693798065
          -0.9038000106811523 0.40299999713897705 0.14390000700950623 -0.3188999891281128 0.9196000099182129 0.22949999570846558
          -0.3513000011444092 0.8140000104904175 0.4627000093460083 0.8960000276565552 -0.4284000098705292 0.11699999868869781
          0.9103000164031982 0.24320000410079956 -0.335099995136261 -0.9993000030517578 0.02969999983906746 -0.02459999918937683
          -0.9656999707221985 -0.25769999623298645 -0.031700000166893005 0.9538000226020813 0.03020000085234642 -0.2989000082015991
          -0.5145000219345093 -0.715499997138977 0.4724999964237213 -0.656000018119812 -0.6973000168800354 0.28870001435279846
          -0.7739999890327454 0.2378000020980835 0.5867999792098999 -0.838100016117096 0.025200000032782555 0.5450000166893005
          -0.8828999996185303 0.17749999463558197 0.43479999899864197 -0.9513999819755554 0.06350000202655792 0.3012999892234802
          0.538100004196167 0.46970000863075256 0.6998999714851379 0.7574999928474426 -0.38659998774528503 0.5260999798774719
          0.9075999855995178 0.2565999925136566 -0.3321000039577484 0.9520000219345093 0.2985000014305115 -0.06729999929666519
          0.8899000287055969 0.26489999890327454 -0.3714999854564667 -0.6330999732017517 -0.7736999988555908 0.025299999862909317
          -0.8273000121116638 -0.5618000030517578 -0.003800000064074993 -0.7849000096321106 -0.5705000162124634 0.24199999868869781
          -0.8984000086784363 -0.40290001034736633 0.1746000051498413 0.1899999976158142 -0.5601000189781189 0.8062999844551086
          -0.1703999936580658 -0.5922999978065491 0.7875000238418579 -0.3522999882698059 -0.6273999810218811 0.6944000124931335
          0.30169999599456787 -0.027300000190734863 -0.953000009059906 0.49880000948905945 0.5903000235557556 -0.6345000267028809
          0.9340999722480774 -0.30059999227523804 -0.19269999861717224 0.6376000046730042 -0.7049000263214111 0.310699999332428
          0.3926999866962433 0.2727999985218048 0.8783000111579895 0.22280000150203705 0.4706999957561493 0.8536999821662903
          0.17010000348091125 0.2721000015735626 0.9470999836921692 0.3197000026702881 0.3944999873638153 0.8615000247955322
          0.1468999981880188 0.5508999824523926 0.8216000199317932 -0.8766999840736389 -0.4677000045776367 0.11309999972581863
          -0.9609000086784363 -0.26420000195503235 0.08259999752044678 -0.9316999912261963 -0.34299999475479126 0.11959999799728394
          -0.7404000163078308 -0.6679999828338623 -0.07429999858140945 -0.7994999885559082 -0.5931000113487244 0.09510000050067902
          -0.8421000242233276 -0.5393000245094299 0.0019000000320374966 0.6744999885559082 0.12890000641345978 -0.7268999814987183
          0.9470999836921692 0.024700000882148743 -0.3199999928474426 0.8791999816894531 0.4092000126838684 -0.24400000274181366
          0.4860000014305115 -0.5916000008583069 0.6432999968528748 0.2484000027179718 -0.6830000281333923 0.6869000196456909
          0.3693999946117401 -0.7311999797821045 0.5734999775886536 0.7541000247001648 -0.5234000086784363 -0.3968000113964081
          0.621999979019165 -0.1467999964952469 -0.7692000269889832 0.786300003528595 -0.34060001373291016 -0.5153999924659729
          0.7529000043869019 -0.6384999752044678 -0.15950000286102295 0.7549999952316284 -0.1290999948978424 -0.6428999900817871
          0.843999981880188 -0.07760000228881836 -0.5307000279426575 -0.8508999943733215 0.42649999260902405 -0.30660000443458557
          0.9120000004768372 0.4043999910354614 -0.06930000334978104 0.8629000186920166 0.3328999876976013 -0.38029998540878296
          -0.03500000014901161 -0.35679998993873596 -0.9334999918937683 -0.07670000195503235 -0.8112000226974487 -0.5795999765396118
          -0.9718000292778015 0.23119999468326569 -0.04670000076293945 -0.9894000291824341 0.13099999725818634 -0.062300000339746475
          -0.9233999848365784 0.3833000063896179 0.019700000062584877 -0.9746000170707703 0.18050000071525574 0.13289999961853027
          0.1356000006198883 -0.9803000092506409 0.14339999854564667 0.12690000236034393 -0.9553999900817871 0.2667999863624573
          -0.07729999721050262 -0.9682999849319458 0.23770000040531158 -0.10830000042915344 -0.9876999855041504 0.1128000020980835
          -0.6180999875068665 0.7860999703407288 0.006000000052154064 -0.7300000190734863 0.4300000071525574 0.5311999917030334
          0.07620000094175339 0.7872999906539917 0.6118000149726868 0.3449999988079071 0.9383999705314636 0.017999999225139618
          -0.14730000495910645 0.8324999809265137 0.5340999960899353 0.1477999985218048 0.8468999862670898 0.5108000040054321
          -0.5898000001907349 -0.8075000047683716 0.0044999998062849045 -0.3433000147342682 -0.9319999814033508 -0.11599999666213989
          -0.7961999773979187 -0.603600025177002 -0.0414000004529953 -0.7148000001907349 -0.6991000175476074 0.017799999564886093
          -0.07530000060796738 -0.9925000071525574 -0.0966000035405159 0.07779999822378159 -0.8375999927520752 -0.5407999753952026
          0.7609000205993652 -0.5252000093460083 -0.38109999895095825 0.10130000114440918 -0.04089999943971634 0.9940000176429749
          0.36399999260902405 0.010200000368058681 0.9312999844551086 0.030799999833106995 -0.28619998693466187 0.9577000141143799
          -0.8582000136375427 0.21899999678134918 0.4641999900341034 -0.6748999953269958 0.28949999809265137 0.6787999868392944
          -0.8920000195503235 0.38960000872612 0.22920000553131104 -0.7795000076293945 0.6169000267982483 -0.10859999805688858
          -0.8571000099182129 0.41350001096725464 -0.30730000138282776 -0.2833000123500824 -0.8629000186920166 0.41839998960494995
          -0.5267000198364258 0.4650999903678894 -0.7114999890327454 -0.9126999974250793 0.40849998593330383 0.010200000368058681
          0.8382999897003174 0.13840000331401825 0.5273000001907349 0.8949000239372253 -0.014800000004470348 0.44600000977516174
          0.6632999777793884 -0.5954999923706055 0.4530999958515167 0.9879000186920166 -0.15449999272823334 0.012199999764561653
          0.957099974155426 0.11779999732971191 -0.26460000872612 0.838100016117096 0.09179999679327011 0.5376999974250793
          0.9722999930381775 0.1761000007390976 0.1534000039100647 0.7648000121116638 -0.0697999969124794 -0.640500009059906
          0.6769999861717224 -0.3682999908924103 -0.6371999979019165 0.9301000237464905 -0.014800000004470348 0.367000013589859
          0.8136000037193298 0.45590001344680786 0.3610000014305115 -0.5691999793052673 -0.14800000190734863 -0.8087999820709229
          -0.5498999953269958 -0.3596000075340271 -0.7538999915122986 -0.3495999872684479 -0.6191999912261963 -0.7031000256538391
          0.8442000150680542 -0.1800999939441681 -0.504800021648407 -0.6640999913215637 0.3887999951839447 0.6384999752044678
          -0.42800000309944153 0.5321000218391418 0.7304999828338623 0.18850000202655792 0.516700029373169 0.835099995136261
          0.8468000292778015 -0.35420000553131104 -0.3970000147819519 0.7574999928474426 -0.5583000183105469 -0.3384000062942505
          -0.567799985408783 -0.45080000162124634 -0.6887000203132629 0.951200008392334 0.3077000081539154 -0.02290000021457672
          0.7894999980926514 0.5705000162124634 -0.22630000114440918 -0.1526000052690506 0.5073999762535095 -0.8481000065803528
          -0.7997000217437744 -0.4970000088214874 0.336899995803833 -0.6797000169754028 -0.38769999146461487 0.6226999759674072
          -0.5566999912261963 -0.39480000734329224 0.73089998960495 0.9922999739646912 -0.09920000284910202 0.07360000163316727