<?xml version="1.0"?>
<VTKFile type="PolyData" version="0.1" byte_order="LittleEndian" header_type="UInt32" compressor="vtkZLibDataCompressor">
  <PolyData>
    <FieldData>
      <Array type="String" Name="MaterialNames" NumberOfTuples="1" format="ascii">
        109 97 116 101 114 105 97 108 95 48 0
      </Array>
      <Array type="String" Name="MaterialLibraries" NumberOfTuples="1" format="ascii">
        109 97 116 101 114 105 97 108 46 109 116 108 0
      </Array>
    </FieldData>
    <Piece NumberOfPoints="290" NumberOfVerts="0" NumberOfLines="0" NumberOfStrips="0" NumberOfPolys="521">
      <PointData Normals="Normals">
        <DataArray type="Float32" Name="Normals" NumberOfComponents="3" format="ascii" RangeMin="0.9999403939328397" RangeMax="1.0000627498967465">
          -0.7843000292778015 -0.37059998512268066 0.4975999891757965 -0.9609000086784363 0.1006999984383583 0.2578999996185303
          -0.7468000054359436 -0.44369998574256897 0.4952999949455261 -0.6190999746322632 -0.7225000262260437 0.30790001153945923
          -0.36880001425743103 -0.7581999897956848 0.5376999974250793 -0.9369999766349792 -0.24279999732971191 0.25110000371932983
          -0.9674000144004822 0.22920000553131104 0.10779999941587448 -0.30570000410079956 -0.9200999736785889 0.24480000138282776
          -0.932699978351593 -0.3531000018119812 0.07410000264644623 -0.49320000410079956 -0.8690999746322632 -0.03680000081658363
          0.13169999420642853 -0.9857000112533569 -0.10540000349283218 0.05339999869465828 -0.9944000244140625 0.09139999747276306
          -0.9661999940872192 0.23579999804496765 0.10409999638795853 -0.983299970626831 0.10740000009536743 0.14720000326633453
          -0.9473999738693237 -0.31869998574256897 -0.02879999950528145 -0.9995999932289124 0.026100000366568565 -0.009200000204145908
          -0.5116999745368958 -0.8001000285148621 -0.31299999356269836 0.019099999219179153 -0.9398999810218811 -0.3409000039100647
          -0.8476999998092651 -0.414900004863739 -0.33059999346733093 -0.8589000105857849 -0.1907999962568283 0.47530001401901245
          -0.5722000002861023 -0.28110000491142273 0.7703999876976013 -0.6197999715805054 -0.015599999576807022 0.784600019454956
          -0.9527000188827515 0.0681999996304512 0.2962999939918518 -0.3086000084877014 -0.5375999808311462 0.7846999764442444
          -0.536300003528595 -0.5961999893188477 0.5975000262260437 -0.03220000118017197 -0.7486000061035156 0.6621999740600586
          0.13369999825954437 -0.8411999940872192 0.5238999724388123 -0.9958999752998352 0.08079999685287476 0.04089999943971634
          -0.9793000221252441 0.15029999613761902 -0.13539999723434448 -0.9002000093460083 -0.33250001072883606 0.28119999170303345
          -0.7289999723434448 -0.5152000188827515 0.4505999982357025 -0.04230000078678131 -0.9521999955177307 0.302700012922287
          0.3472000062465668 -0.9264000058174133 0.14569999277591705 -0.9472000002861023 0.3019999861717224 -0.10819999873638153
          -0.9977999925613403 0.010599999688565731 0.065700002014637 0.39660000801086426 -0.9178000092506409 -0.016699999570846558
          -0.9207000136375427 0.37929999828338623 0.09220000356435776 -0.9452999830245972 0.1656000018119812 0.28110000491142273
          0.4690000116825104 -0.8686000108718872 -0.16009999811649323 -0.9136000275611877 0.20520000159740448 0.35100001096725464
          -0.9861000180244446 0.0778999999165535 0.1467999964952469 -0.9545000195503235 0.0917000025510788 -0.28369998931884766
          -0.9539999961853027 0.14970000088214874 -0.2596000134944916 -0.8414000272750854 -0.22020000219345093 -0.4934000074863434
          -0.3978999853134155 -0.6639000177383423 -0.6331999897956848 0.10740000009536743 -0.8737000226974487 -0.47450000047683716
          -0.651199996471405 -0.1518000066280365 -0.7434999942779541 -0.24529999494552612 -0.541100025177002 -0.8044000267982483
          -0.16840000450611115 0.04639999940991402 0.9846000075340271 -0.3325999975204468 -0.09459999948740005 0.9383000135421753
          -0.1096000000834465 -0.40149998664855957 0.9093000292778015 -0.5252000093460083 -0.039900001138448715 0.8500999808311462
          -0.19110000133514404 0.06930000334978104 0.9790999889373779 0.12319999933242798 -0.6554999947547913 0.7451000213623047
          0.4864000082015991 -0.8424999713897705 0.23160000145435333 -0.8989999890327454 -0.020899999886751175 0.4374000132083893
          -0.9354000091552734 0.009600000455975533 0.35339999198913574 -0.9962000250816345 -0.04410000145435333 0.0754999965429306
          -0.9986000061035156 -0.04749999940395355 0.024299999698996544 -0.9973999857902527 -0.06889999657869339 -0.021800000220537186
          -0.9854999780654907 0.02850000001490116 -0.16740000247955322 -0.9994000196456909 -0.005200000014156103 0.03319999948143959
          -0.9794999957084656 -0.19599999487400055 -0.04670000076293945 -0.9801999926567078 -0.16300000250339508 0.11289999634027481
          -0.9768999814987183 0.20759999752044678 0.050999999046325684 -0.9639000296592712 -0.1306000053882599 0.2320999950170517
          -0.9876999855041504 0.09200000017881393 0.1265999972820282 -0.9847000241279602 0.16840000450611115 -0.04360000044107437
          0.35199999809265137 -0.8519999980926514 -0.38760000467300415 0.6657000184059143 -0.7188000082969666 -0.2003999948501587
          -0.9110000133514404 -0.0005000000237487257 -0.4124000072479248 0.07079999893903732 -0.5685999989509583 -0.8195000290870667
          0.23839999735355377 -0.5877000093460083 -0.7731999754905701 -0.47130000591278076 -0.26019999384880066 -0.8427000045776367
          -0.17919999361038208 -0.2597000002861023 -0.9488999843597412 0.0210999995470047 -0.3181999921798706 -0.9477999806404114
          0.05090000107884407 0.29249998927116394 0.9549000263214111 -0.10419999808073044 0.0957999974489212 0.9898999929428101
          0.04780000075697899 -0.4453999996185303 0.89410001039505 -0.20250000059604645 -0.07639999687671661 0.9763000011444092
          -0.003000000026077032 -0.1193000003695488 0.992900013923645 0.10260000079870224 0.0031999999191612005 0.994700014591217
          0.520799994468689 -0.7875000238418579 0.3294000029563904 -0.9093999862670898 -0.12399999797344208 0.3968999981880188
          0.6438000202178955 -0.7627999782562256 -0.061000000685453415 0.6633999943733215 -0.7063000202178955 -0.24699999392032623
          -0.8131999969482422 -0.3693999946117401 0.4496999979019165 -0.8277999758720398 0.39890000224113464 0.3944000005722046
          -0.804099977016449 -0.4966999888420105 0.32670000195503235 -0.6017000079154968 -0.7351999878883362 0.31220000982284546
          -0.934499979019165 -0.34950000047683716 0.06719999760389328 -0.9764999747276306 -0.20990000665187836 -0.04780000075697899
          0.7062000036239624 -0.6639000177383423 -0.2459000051021576 -0.6952999830245972 0.7128999829292297 -0.09109999984502792
          -0.9549999833106995 0.19769999384880066 0.22100000083446503 -0.614799976348877 -0.7847999930381775 0.07779999822378159
          -0.5835999846458435 -0.8119999766349792 -0.0015999999595806003 -0.8737999796867371 0.3230000138282776 -0.3634999990463257
          -0.9539999961853027 -0.14890000224113464 -0.2603999972343445 -0.7519999742507935 -0.5910000205039978 -0.29190000891685486
          -0.9969000220298767 0.02710000053048134 -0.0738999992609024 -0.8212000131607056 -0.4187000095844269 -0.387800008058548
          -0.9516000151634216 0.0835999995470047 -0.2957000136375427 0.5127999782562256 -0.6262999773025513 -0.5871999859809875
          -0.906499981880188 0.20679999887943268 -0.36809998750686646 -0.9261000156402588 0.20309999585151672 -0.3179999887943268
          0.32829999923706055 -0.3517000079154968 -0.8766000270843506 0.33480000495910645 -0.15160000324249268 -0.9300000071525574
          0.4196000099182129 -0.23070000112056732 -0.8779000043869019 -0.9666000008583069 0.20800000429153442 -0.14970000088214874
          -0.9474999904632568 -0.3140000104904175 0.06040000170469284 -0.9420999884605408 0.23829999566078186 0.23600000143051147
          -0.5044000148773193 -0.6597999930381775 -0.5570999979972839 0.19979999959468842 -0.7336000204086304 -0.6495000123977661
          -0.829800009727478 0.24310000240802765 0.5023000240325928 -0.857699990272522 0.009200000204145908 0.5139999985694885
          -0.37220001220703125 -0.923799991607666 -0.08940000087022781 0.41690000891685486 -0.8580999970436096 -0.299699991941452
          -0.6176000237464905 -0.7143999934196472 0.32899999618530273 -0.3993000090122223 -0.8980000019073486 0.18459999561309814
          0.17229999601840973 0.007699999958276749 0.9850000143051147 -0.14810000360012054 0.4674000144004822 0.8715999722480774
          0.5038999915122986 -0.5436999797821045 0.6711000204086304 -0.0015999999595806003 0.5009999871253967 0.8654000163078308
          -0.15049999952316284 0.0333000011742115 0.988099992275238 -0.5631999969482422 -0.16290000081062317 0.8101000189781189
          0.05990000069141388 0.004699999932199717 0.998199999332428 -0.5788999795913696 -0.10459999740123749 0.8087000250816345
          0.25769999623298645 0.012900000438094139 0.9660999774932861 0.3310999870300293 -0.04340000078082085 0.9426000118255615
          0.22059999406337738 0.1737000048160553 0.9598000049591064 -0.8007000088691711 -0.13089999556541443 0.5845999717712402
          -0.4595000147819519 0.1590999960899353 0.8737999796867371 -0.7196000218391418 0.3569999933242798 0.5956000089645386
          -0.8337000012397766 -0.3287000060081482 0.44369998574256897 -0.7657999992370605 0.5422000288963318 0.3458000123500824
          -0.8845999836921692 -0.37779998779296875 0.2732999920845032 0.7434999942779541 -0.6678000092506409 0.03709999844431877
          -0.895799994468689 0.3133000135421753 0.31520000100135803 -0.6262999773025513 0.777899980545044 0.051100000739097595
          -0.4415999948978424 0.8952999711036682 -0.05900000035762787 -0.45080000162124634 0.8906000256538391 -0.06019999831914902
          -0.7455999851226807 -0.6459000110626221 0.1639000028371811 -0.8302000164985657 -0.5543000102043152 -0.059300001710653305
          0.6729999780654907 -0.48899999260902405 -0.5550000071525574 -0.7347999811172485 -0.6255000233650208 -0.26249998807907104
          -0.9304999709129333 -0.28679999709129333 -0.22789999842643738 0.847100019454956 -0.3937999904155731 -0.35670000314712524
          0.7835000157356262 -0.3165999948978424 -0.5346999764442444 -0.8198999762535095 0.43459999561309814 -0.3727000057697296
          -0.6353999972343445 0.7461000084877014 -0.19910000264644623 0.6342999935150146 -0.039900001138448715 -0.7720999717712402
          0.7049999833106995 -0.31040000915527344 -0.6377000212669373 0.6266999840736389 -0.07440000027418137 -0.7756999731063843
          0.6924999952316284 -0.0851999968290329 -0.7164000272750854 0.6377000212669373 -0.02370000071823597 -0.7699999809265137
          0.758899986743927 -0.3230000138282776 -0.5654000043869019 -0.6309000253677368 0.6650999784469604 -0.3995000123977661
          -0.8499000072479248 0.14319999516010284 -0.507099986076355 -0.7455000281333923 -0.4253999888896942 -0.5131000280380249
          -0.7940999865531921 -0.2240999937057495 -0.5648999810218811 -0.9172999858856201 0.04699999839067459 -0.3955000042915344
          0.7307000160217285 -0.3240000009536743 -0.6010000109672546 0.7592999935150146 -0.459199994802475 -0.4611000120639801
          0.5099999904632568 -0.08219999819993973 -0.8561999797821045 -0.7299000024795532 0.241799995303154 -0.6394000053405762
          -0.6136999726295471 0.05299999937415123 -0.7876999974250793 -0.5511999726295471 -0.19939999282360077 -0.8101999759674072
          -0.9261999726295471 0.1712000072002411 -0.335999995470047 -0.944599986076355 0.3246999979019165 -0.04740000143647194
          0.730400025844574 -0.628600001335144 -0.2671999931335449 0.5515000224113464 -0.8309000134468079 -0.07349999994039536
          0.6377000212669373 -0.7678999900817871 -0.06129999831318855 0.3343999981880188 0.2969000041484833 0.8944000005722046
          0.7373999953269958 -0.37299999594688416 0.5631999969482422 0.6699000000953674 0.09749999642372131 0.7361000180244446
          0.8651000261306763 -0.398499995470047 0.3046000003814697 0.3409999907016754 0.39010000228881836 0.8553000092506409
          0.03269999846816063 0.4844000041484833 0.8741999864578247 0.38190001249313354 0.1518000066280365 0.9115999937057495
          0.4560000002384186 0.15950000286102295 0.8755999803543091 0.3921999931335449 0.17679999768733978 0.9027000069618225
          0.29829999804496765 0.0560000017285347 0.9527999758720398 0.1152999997138977 0.2282000035047531 0.9667999744415283
          -0.3203999996185303 0.8061000108718872 0.4975999891757965 -0.31869998574256897 0.9409999847412109 0.11389999836683273
          -0.22210000455379486 0.9589999914169312 -0.17579999566078186 0.6021999716758728 -0.1793999969959259 -0.777899980545044
          0.7354999780654907 -0.5002999901771545 -0.45680001378059387 0.6559000015258789 -0.20430000126361847 -0.7267000079154968
          0.6014999747276306 -0.094200000166893 -0.7932999730110168 -0.2498999983072281 0.9624999761581421 -0.10559999942779541
          -0.4726000130176544 0.8741999864578247 -0.11140000075101852 -0.2362000048160553 0.9614999890327454 -0.14069999754428864
          -0.2574999928474426 0.8891000151634216 -0.3783999979496002 0.8413000106811523 -0.44290000200271606 -0.3098999857902527
          -0.35670000314712524 0.6707000136375427 -0.6503000259399414 -0.34459999203681946 0.5354999899864197 -0.7710999846458435
          -0.5791000127792358 -0.20880000293254852 -0.7879999876022339 -0.8219000101089478 0.0731000006198883 -0.5648999810218811
          -0.9182000160217285 0.1899999976158142 -0.3474999964237213 -0.542900025844574 -0.038600001484155655 -0.8389000296592712
          -0.9703999757766724 0.23029999434947968 -0.07249999791383743 0.8684999942779541 -0.4887999892234802 -0.08190000057220459
          0.8058000206947327 -0.5917999744415283 -0.021299999207258224 0.3154999911785126 0.4341000020503998 0.8438000082969666
          0.1565999984741211 0.27900001406669617 0.9473999738693237 0.2935999929904938 0.3418000042438507 0.8927000164985657
          0.8628000020980835 -0.498199999332428 0.08609999716281891 0.11659999936819077 0.8744999766349792 0.4708000123500824
          0.23010000586509705 0.861299991607666 0.453000009059906 0.24819999933242798 0.7795000076293945 0.5751000046730042
          0.4885999858379364 0.41850000619888306 0.7656000256538391 0.47519999742507935 0.32249999046325684 0.8185999989509583
          -0.026900000870227814 0.9961000084877014 0.08410000056028366 -0.13009999692440033 0.9890999794006348 0.06859999895095825
          0.7651000022888184 -0.6287999749183655 -0.13850000500679016 -0.16459999978542328 0.9728999733924866 -0.16269999742507935
          0.697700023651123 -0.29159998893737793 -0.6543999910354614 0.6815999746322632 -0.14079999923706055 -0.7179999947547913
          -0.10809999704360962 0.9107999801635742 -0.3984000086784363 0.7495999932289124 -0.2547999918460846 -0.6108999848365784
          0.8003000020980835 -0.2362000048160553 -0.5511000156402588 0.8597000241279602 -0.08529999852180481 -0.5037000179290771
          -0.11959999799728394 0.7706999778747559 -0.6258999705314636 0.48840001225471497 0.1103999987244606 -0.8655999898910522
          0.6223000288009644 0.5320000052452087 -0.5741999745368958 0.6223000288009644 0.5320000052452087 -0.5741999745368958
          0.7332000136375427 0.031099999323487282 -0.6793000102043152 0.6223000288009644 0.5320000052452087 -0.5741999745368958
          0.8774999976158142 0.04470000043511391 -0.477400004863739 0.5056999921798706 0.1379999965429306 -0.8515999913215637
          0.9534000158309937 -0.20160000026226044 -0.22460000216960907 0.940500020980835 -0.33329999446868896 -0.06530000269412994
          0.7678999900817871 0.019500000402331352 0.6402999758720398 0.3409000039100647 0.3831000030040741 0.8585000038146973
          0.49470001459121704 0.22210000455379486 0.8402000069618225 0.0471000000834465 0.8973000049591064 0.43880000710487366
          0.5924000144004822 0.358599990606308 0.7214999794960022 0.47200000286102295 0.3986000120639801 0.786300003528595
          -0.288100004196167 0.9574000239372253 -0.018400000408291817 -0.04989999905228615 0.9980999827384949 -0.0348999984562397
          0.8241999745368958 -0.566100001335144 -0.016499999910593033 0.7433000206947327 -0.41449999809265137 -0.5250999927520752
          0.691100001335144 -0.1987999975681305 -0.6948999762535095 0.7303000092506409 -0.012600000016391277 -0.6830000281333923
          0.5432000160217285 0.08089999854564667 -0.8356999754905701 0.6790000200271606 -0.25920000672340393 -0.6869000196456909
          -0.11060000211000443 0.9675999879837036 -0.22679999470710754 0.7371000051498413 -0.13379999995231628 -0.6624000072479248
          -0.10130000114440918 0.8830999732017517 -0.45809999108314514 -0.07729999721050262 0.828000009059906 -0.555400013923645
          0.14300000667572021 0.6148999929428101 -0.7754999995231628 0.5870000123977661 0.08139999955892563 -0.8054999709129333
          0.07670000195503235 0.6509000062942505 -0.7552000284194946 0.4239000082015991 0.2754000127315521 -0.8628000020980835
          0.527899980545044 0.25699999928474426 0.809499979019165 0.4350999891757965 0.4672999978065491 0.769599974155426
          0.7222999930381775 0.09880000352859497 0.684499979019165 0.6134999990463257 0.5486999750137329 0.5679000020027161
          0.6904000043869019 0.6344000101089478 0.34779998660087585 0.3188999891281128 0.8349999785423279 0.44839999079704285
          0.5641000270843506 0.6384999752044678 0.5235999822616577 0.5235999822616577 0.4235999882221222 0.7391999959945679
          0.7512999773025513 0.3953999876976013 0.5284000039100647 0.8116999864578247 0.5127000212669373 0.27970001101493835
          0.17389999330043793 0.9840999841690063 -0.03550000116229057 0.3971000015735626 0.8691999912261963 0.2946999967098236
          0.46239998936653137 0.5259000062942505 0.7139000296592712 -0.3382999897003174 0.8982999920845032 0.28040000796318054
          0.350600004196167 0.5856000185012817 0.73089998960495 0.4043999910354614 0.34130001068115234 0.8485000133514404
          0.07000000029802322 0.9916999936103821 -0.10790000110864639 0.004800000227987766 0.9768999814987183 -0.21389999985694885
          0.5253999829292297 -0.31369999051094055 -0.7908999919891357 0.5921000242233276 -0.06650000065565109 -0.8030999898910522
          0.1370999962091446 0.7473000288009644 -0.6502000093460083 0.6144000291824341 -0.05559999868273735 -0.7870000004768372
          0.44670000672340393 0.29750001430511475 -0.8438000082969666 -0.3382999897003174 0.8982999920845032 0.28040000796318054
          0.06509999930858612 0.5935999751091003 0.8021000027656555 0.03909999877214432 0.4449000060558319 0.8946999907493591
          0.22390000522136688 0.9746000170707703 -0.009999999776482582 -0.3382999897003174 0.8982999920845032 0.28040000796318054
          0.2037000060081482 0.9660999774932861 -0.15880000591278076 0.3903999924659729 0.8899000287055969 -0.23589999973773956
          0.12919999659061432 0.9319999814033508 -0.3386000096797943 0.3693000078201294 0.829800009727478 -0.41839998960494995
          0.31369999051094055 0.789900004863739 -0.5268999934196472 0.5493000149726868 0.505299985408783 -0.6656000018119812
          <InformationKey name="L2_NORM_RANGE" location="vtkDataArray" length="2">
            <Value index="0">
              0.99994039393
            </Value>
            <Value index="1">
              1.0000627499
            </Value>
          </InformationKey>
        </DataArray>
      </PointData>
      <CellData>
        <DataArray type="Int32" Name="MaterialIds" format="ascii" RangeMin="0" RangeMax="0">
          0 0 0 0 0 0
          0 0 0 0 0 0
          0 0 0 0 0 0
          0 0 0 0 0 0
          0 0 0 0 0 0
          0 0 0 0 0 0
          0 0 0 0 0 0
          0 0 0 0 0 0
          0 0 0 0 0 0
          0 0 0 0 0 0
          0 0 0 0 0 0
          0 0 0 0 0 0
          0 0 0 0 0 0
          0 0 0 0 0 0
          0 0 0 0 0 0
          0 0 0 0 0 0
          0 0 0 0 0 0
          0 0 0 0 0 0
          0 0 0 0 0 0
          0 0 0 0 0 0
          0 0 0 0 0 0
          0 0 0 0 0 0
          0 0 0 0 0 0
          0 0 0 0 0 0
          0 0 0 0 0 0
          0 0 0 0 0 0
          0 0 0 0 0 0
          0 0 0 0 0 0
          0 0 0 0 0 0
          0 0 0 0 0 0
          0 0 0 0 0 0
          0 0 0 0 0 0
          0 0 0 0 0 0
          0 0 0 0 0 0
          0 0 0 0 0 0
          0 0 0 0 0 0
          0 0 0 0 0 0
          0 0 0 0 0 0
          0 0 0 0 0 0
          0 0 0 0 0 0
          0 0 0 0 0 0
          0 0 0 0 0 0
          0 0 0 0 0 0
          0 0 0 0 0 0
          0 0 0 0 0 0
          0 0 0 0 0 0
          0 0 0 0 0 0
          0 0 0 0 0 0
          0 0 0 0 0 0
          0 0 0 0 0 0
          0 0 0 0 0 0
          0 0 0 0 0 0
          0 0 0 0 0 0
          0 0 0 0 0 0
          0 0 0 0 0 0
          0 0 0 0 0 0
          0 0 0 0 0 0
          0 0 0 0 0 0
          0 0 0 0 0 0
          0 0 0 0 0 0
          0 0 0 0 0 0
          0 0 0 0 0 0
          0 0 0 0 0 0
          0 0 0 0 0 0
          0 0 0 0 0 0
          0 0 0 0 0 0
          0 0 0 0 0 0
          0 0 0 0 0 0
          0 0 0 0 0 0
          0 0 0 0 0 0
          0 0 0 0 0 0
          0 0 0 0 0 0
          0 0 0 0 0 0
          0 0 0 0 0 0
          0 0 0 0 0 0
          0 0 0 0 0 0
          0 0 0 0 0 0
          0 0 0 0 0 0
          0 0 0 0 0 0
          0 0 0 0 0 0
          0 0 0 0 0 0
          0 0 0 0 0 0
          0 0 0 0 0 0
          0 0 0 0 0 0
          0 0 0 0 0 0
          0 0 0 0 0 0
          0 0 0 0 0
        </DataArray>
        <DataArray type="Float32" Name="GroupIds" format="ascii" RangeMin="0" RangeMax="0">
          0 0 0 0 0 0
          0 0 0 0 0 0
          0 0 0 0 0 0
          0 0 0 0 0 0
          0 0 0 0 0 0
          0 0 0 0 0 0
          0 0 0 0 0 0
          0 0 0 0 0 0
          0 0 0 0 0 0
          0 0 0 0 0 0
          0 0 0 0 0 0
          0 0 0 0 0 0
          0 0 0 0 0 0
          0 0 0 0 0 0
          0 0 0 0 0 0
          0 0 0 0 0 0
          0 0 0 0 0 0
          0 0 0 0 0 0
          0 0 0 0 0 0
          0 0 0 0 0 0
          0 0 0 0 0 0
          0 0 0 0 0 0
          0 0 0 0 0 0
          0 0 0 0 0 0
          0 0 0 0 0 0
          0 0 0 0 0 0
          0 0 0 0 0 0
          0 0 0 0 0 0
          0 0 0 0 0 0
          0 0 0 0 0 0
          0 0 0 0 0 0
          0 0 0 0 0 0
          0 0 0 0 0 0
          0 0 0 0 0 0
          0 0 0 0 0 0
          0 0 0 0 0 0
          0 0 0 0 0 0
          0 0 0 0 0 0
          0 0 0 0 0 0
          0 0 0 0 0 0
          0 0 0 0 0 0
          0 0 0 0 0 0
          0 0 0 0 0 0
          0 0 0 0 0 0
          0 0 0 0 0 0
          0 0 0 0 0 0
          0 0 0 0 0 0
          0 0 0 0 0 0
          0 0 0 0 0 0
          0 0 0 0 0 0
          0 0 0 0 0 0
          0 0 0 0 0 0
          0 0 0 0 0 0
          0 0 0 0 0 0
          0 0 0 0 0 0
          0 0 0 0 0 0
          0 0 0 0 0 0
          0 0 0 0 0 0
          0 0 0 0 0 0
          0 0 0 0 0 0
          0 0 0 0 0 0
          0 0 0 0 0 0
          0 0 0 0 0 0
          0 0 0 0 0 0
          0 0 0 0 0 0
          0 0 0 0 0 0
          0 0 0 0 0 0
          0 0 0 0 0 0
          0 0 0 0 0 0
          0 0 0 0 0 0
          0 0 0 0 0 0
          0 0 0 0 0 0
          0 0 0 0 0 0
          0 0 0 0 0 0
          0 0 0 0 0 0
          0 0 0 0 0 0
          0 0 0 0 0 0
          0 0 0 0 0 0
          0 0 0 0 0 0
          0 0 0 0 0 0
          0 0 0 0 0 0
          0 0 0 0 0 0
          0 0 0 0 0 0
          0 0 0 0 0 0
          0 0 0 0 0 0
          0 0 0 0 0 0
          0 0 0 0 0
        </DataArray>
      </CellData>
      <Points>
        <DataArray type="Float32" Name="Points" NumberOfComponents="3" format="ascii" RangeMin="18.302593977914245" RangeMax="22.878673999781654">
          -7.791100025177002 -2.390399932861328 -18.480499267578125 -7.888599872589111 -2.276400089263916 -18.671199798583984
          -7.842599868774414 -2.491499900817871 -18.620399475097656 -7.8394999504089355 -2.706899881362915 -18.93630027770996
          -7.466899871826172 -2.5566999912261963 -18.329700469970703 -7.9710001945495605 -2.496799945831299 -18.878299713134766
          -7.965700149536133 -2.3239998817443848 -18.94339942932129 -7.612100124359131 -2.8587000370025635 -19.01849937438965
          -7.978799819946289 -2.622999906539917 -19.30699920654297 -7.805300235748291 -2.8541998863220215 -19.507699966430664
          -7.535399913787842 -2.8817999362945557 -19.47960090637207 -7.465000152587891 -2.890399932861328 -19.053499221801758
          -7.94379997253418 -2.219899892807007 -19.216800689697266 -7.984799861907959 -2.2130000591278076 -19.543800354003906
          -8.022700309753418 -2.545300006866455 -19.779800415039062 -8.030599594116211 -2.226799964904785 -19.872600555419922
          -7.846799850463867 -2.746799945831299 -19.905500411987305 -7.627600193023682 -2.8180999755859375 -19.87070083618164
          -7.985300064086914 -2.535099983215332 -20.03230094909668 -7.786600112915039 -1.8481999635696411 -17.908899307250977
          -7.572000026702881 -1.8050999641418457 -17.6737003326416 -7.552700042724609 -1.5465999841690063 -17.638500213623047
          -7.775100231170654 -1.5786000490188599 -17.960800170898438 -7.352700233459473 -1.9615000486373901 -17.646299362182617
          -7.611800193786621 -2.1349000930786133 -17.96489906311035 -7.0914998054504395 -2.325700044631958 -17.898500442504883
          -7.028800010681152 -2.6428000926971436 -18.284500122070312 -7.8343000411987305 -1.812000036239624 -18.178300857543945
          -7.788700103759766 -1.6628999710083008 -18.309099197387695 -7.807300090789795 -2.0732998847961426 -18.194599151611328
          -7.71750020980835 -2.31469988822937 -18.290599822998047 -7.311200141906738 -2.793299913406372 -18.70490074157715
          -6.978899955749512 -2.7314999103546143 -18.55430030822754 -7.758999824523926 -1.8667000532150269 -18.730300903320312
          -7.841700077056885 -2.069499969482422 -18.463499069213867 -7.10699987411499 -2.775099992752075 -18.94260025024414
          -7.79580020904541 -1.9745999574661255 -18.928699493408203 -7.757199764251709 -1.757099986076355 -19.201400756835938
          -6.926799774169922 -2.5998001098632812 -19.67840003967285 -7.889900207519531 -1.8981000185012817 -19.450899124145508
          -7.919899940490723 -1.5276000499725342 -19.6294002532959 -8.004400253295898 -2.016700029373169 -20.10449981689453
          -7.88040018081665 -1.347599983215332 -20.13640022277832 -7.96750020980835 -2.3828001022338867 -20.182600021362305
          -7.758900165557861 -2.5536000728607178 -20.2731990814209 -7.383399963378906 -2.5840001106262207 -20.290300369262695
          -7.725599765777588 -2.066499948501587 -20.53019905090332 -7.510200023651123 -2.3903000354766846 -20.53190040588379
          -7.0843000411987305 -1.4636000394821167 -17.440000534057617 -7.273099899291992 -1.6398999691009521 -17.490699768066406
          -7.042799949645996 -1.8224999904632568 -17.4906005859375 -7.501299858093262 -0.7803999781608582 -17.58690071105957
          -7.234000205993652 -1.1842000484466553 -17.499099731445312 -6.595099925994873 -1.962399959564209 -17.56839942932129
          -6.598100185394287 -2.4728000164031982 -18.40180015563965 -7.739099979400635 -1.3162000179290771 -17.852699279785156
          -7.784999847412109 -0.9036999940872192 -17.94300079345703 -7.806399822235107 -0.41100001335144043 -18.4685001373291
          -7.835400104522705 -0.9768000245094299 -18.328399658203125 -7.788700103759766 -1.3300000429153442 -18.257299423217773
          -7.688300132751465 -1.5496000051498413 -18.600900650024414 -7.794099807739258 -0.8734999895095825 -18.984600067138672
          -7.767199993133545 -1.1299999952316284 -18.738000869750977 -7.684199810028076 -1.3976000547409058 -18.917800903320312
          -7.682400226593018 -1.7237999439239502 -18.896799087524414 -7.808599948883057 -1.1469000577926636 -19.131500244140625
          -7.877799987792969 -1.0967999696731567 -19.384700775146484 -7.865099906921387 -0.98089998960495 -19.68670082092285
          -6.903200149536133 -2.440700054168701 -20.345300674438477 -6.563399791717529 -2.2476999759674072 -20.23240089416504
          -7.681000232696533 -1.3838000297546387 -20.577600479125977 -7.234099864959717 -2.3190999031066895 -20.600400924682617
          -6.964399814605713 -2.3101999759674072 -20.539600372314453 -7.4984002113342285 -1.6444000005722046 -20.76689910888672
          -7.403299808502197 -1.8776999711990356 -20.752500534057617 -7.233799934387207 -2.106100082397461 -20.685199737548828
          -6.7032999992370605 -1.1131000518798828 -17.529600143432617 -6.500699996948242 -1.4428999423980713 -17.377199172973633
          -6.148600101470947 -1.6295000314712524 -17.345699310302734 -7.365600109100342 -0.14020000398159027 -17.452499389648438
          -7.166800022125244 -0.4300000071525574 -17.452800750732422 -6.955100059509277 -0.8245999813079834 -17.533300399780273
          -5.798699855804443 -1.8472000360488892 -17.85110092163086 -7.694799900054932 0.04569999873638153 -17.805500030517578
          -5.937300205230713 -2.0144999027252197 -18.866500854492188 -5.904699802398682 -1.867300033569336 -19.51300048828125
          -8.198800086975098 0.7418000102043152 -18.3125 -8.490500450134277 1.0231000185012817 -18.71660041809082
          -8.612799644470215 0.6355000138282776 -18.98390007019043 -8.210399627685547 0.4016000032424927 -18.8528995513916
          -7.906300067901611 -0.00279999990016222 -18.920900344848633 -7.821000099182129 -0.25850000977516174 -19.26729965209961
          -6.3765997886657715 -2.104300022125244 -19.961299896240234 -8.620800018310547 1.0111000537872314 -19.061800003051758