<?xml version="1.0"?>
<VTKFile type="PolyData" version="0.1" byte_order="LittleEndian" header_type="UInt32" compressor="vtkZLibDataCompressor">
  <PolyData>
    <FieldData>
      <Array type="String" Name="MaterialNames" NumberOfTuples="1" format="ascii">
        109 97 116 101 114 105 97 108 95 48 0
      </Array>
      <Array type="String" Name="MaterialLibraries" NumberOfTuples="1" format="ascii">
        109 97 116 101 114 105 97 108 46 109 116 108 0
      </Array>
    </FieldData>
    <Piece NumberOfPoints="640" NumberOfVerts="0" NumberOfLines="0" NumberOfStrips="0" NumberOfPolys="1260">
      <PointData Normals="Normals">
        <DataArray type="Float32" Name="Normals" NumberOfComponents="3" format="ascii" RangeMin="0.9999292671087008" RangeMax="1.0000688495457357">
          0.06199999898672104 0.9728999733924866 -0.22269999980926514 0.21739999949932098 0.8636999726295471 -0.4546999931335449
          0.19869999587535858 0.9704999923706055 -0.13650000095367432 0.46560001373291016 -0.6237000226974487 -0.6277999877929688
          0.3043000102043152 -0.5654000043869019 -0.7666000127792358 0.6205999851226807 -0.5077000260353088 -0.5975000262260437
          0.9375 0.08590000122785568 -0.33709999918937683 0.8754000067710876 0.24869999289512634 -0.41449999809265137
          0.8012999892234802 0.1589999943971634 -0.5767999887466431 -0.6769999861717224 -0.43880000710487366 0.5909000039100647
          -0.5799999833106995 -0.2761000096797943 0.7663999795913696 -0.5486000180244446 -0.09369999915361404 0.8307999968528748
          0.6098999977111816 -0.015699999406933784 0.7922999858856201 0.15189999341964722 -0.15880000591278076 0.975600004196167
          0.44920000433921814 0.11890000104904175 0.8855000138282776 0.03269999846816063 0.5806999802589417 0.8133999705314636
          -0.4887999892234802 0.44359999895095825 0.7512000203132629 -0.3222000002861023 0.8334000110626221 0.4490000009536743
          -0.2806999981403351 -0.0203000009059906 0.9595999717712402 0.20280000567436218 -0.7937999963760376 0.5733000040054321
          0.2476000040769577 -0.5817000269889832 0.7748000025749207 0.47290000319480896 -0.3946000039577484 0.7878000140190125
          -0.22200000286102295 -0.9610000252723694 -0.16459999978542328 -0.42649999260902405 -0.9013000130653381 -0.07599999755620956
          -0.43619999289512634 -0.8998000025749207 -0.01119999960064888 -0.7501999735832214 0.6557999849319458 0.08479999750852585
          -0.8004999756813049 0.5503000020980835 0.23729999363422394 -0.6499999761581421 0.739799976348877 0.17389999330043793
          -0.004800000227987766 -0.9750000238418579 -0.22210000455379486 0.3440000116825104 -0.9039999842643738 -0.2538999915122986
          0.08009999990463257 -0.932200014591217 -0.3531000018119812 0.9477999806404114 -0.12240000069141388 0.2946000099182129
          0.9193999767303467 0.2793000042438507 0.2768000066280365 0.8903999924659729 -0.015300000086426735 0.45500001311302185
          -0.22110000252723694 -0.11320000141859055 -0.9686999917030334 -0.09589999914169312 -0.13289999961853027 -0.9865000247955322
          -0.6255000233650208 0.11580000072717667 -0.7714999914169312 0.21130000054836273 0.060100000351667404 -0.975600004196167
          0.11420000344514847 -0.1395999938249588 -0.9836000204086304 0.07450000196695328 0.11540000140666962 -0.9904999732971191
          -0.08540000021457672 -0.46560001373291016 -0.8809000253677368 -0.2578999996185303 -0.19189999997615814 -0.9469000101089478
          -0.2660999894142151 -0.5342000126838684 -0.802299976348877 -0.00279999990016222 0.9904999732971191 -0.13729999959468842
          0.396699994802475 0.8988000154495239 -0.1867000013589859 0.29499998688697815 0.944100022315979 -0.14720000326633453
          -0.7541000247001648 -0.4569999873638153 0.4717000126838684 -0.652400016784668 -0.7103000283241272 0.26429998874664307
          -0.8867999911308289 -0.3804999887943268 0.2621999979019165 -0.8827999830245972 0.22779999673366547 0.4108000099658966
          -0.8691999912261963 0.22370000183582306 0.4410000145435333 -0.8468000292778015 0.36230000853538513 0.38940000534057617
          -0.6601999998092651 0.6403999924659729 0.39259999990463257 0.41510000824928284 -0.008100000210106373 0.9096999764442444
          -0.0044999998062849045 -0.06790000200271606 0.9976999759674072 0.47360000014305115 -0.07880000025033951 0.8772000074386597
          0.6776000261306763 0.6671000123023987 -0.30970001220703125 0.9914000034332275 0.09880000352859497 0.08630000054836273
          -0.20440000295639038 0.7896999716758728 0.5784000158309937 0.22669999301433563 0.16220000386238098 0.9603999853134155
          -0.2037999927997589 0.734499990940094 0.6471999883651733 0.7459999918937683 -0.36320000886917114 0.5582000017166138
          0.8758999705314636 -0.4521999955177307 0.16830000281333923 0.9258999824523926 -0.02290000021457672 0.37700000405311584
          0.2912999987602234 0.7164999842643738 -0.633899986743927 0.01759999990463257 0.8921999931335449 -0.4512999951839447
          -0.031599998474121094 0.9763000011444092 -0.21389999985694885 -0.9031000137329102 -0.10369999706745148 0.41679999232292175
          -0.9697999954223633 -0.21490000188350677 0.11569999903440475 -0.9656000137329102 0.012299999594688416 0.259799987077713
          0.7839999794960022 -0.13249999284744263 -0.6065000295639038 0.6399000287055969 -0.38089999556541443 -0.6674000024795532
          0.5135999917984009 -0.10189999639987946 -0.8519999980926514 -0.9229000210762024 -0.3564000129699707 -0.14589999616146088
          -0.8784000277519226 -0.19760000705718994 -0.43529999256134033 -0.930899977684021 -0.14820000529289246 -0.33379998803138733
          0.22259999811649323 0.6593000292778015 0.7182000279426575 0.3328000009059906 0.8169000148773193 0.47110000252723694
          0.7300999760627747 0.3709999918937683 0.5738999843597412 0.9032999873161316 -0.1151999980211258 0.41339999437332153
          0.9951000213623047 0.06509999930858612 0.07450000196695328 0.8086000084877014 -0.5490000247955322 0.21160000562667847
          0.3903999924659729 -0.2809999883174896 -0.8766999840736389 0.28760001063346863 -0.17720000445842743 -0.9412000179290771
          0.3531000018119812 -0.065700002014637 -0.9333000183105469 0.8675000071525574 0.021900000050663948 -0.4970000088214874
          0.9876999855041504 -0.01810000091791153 -0.15520000457763672 0.8600000143051147 -0.4000000059604645 -0.31700000166893005
          0.6819000244140625 0.45159998536109924 0.5753999948501587 0.5098000168800354 0.35589998960494995 0.7832000255584717
          0.1873999983072281 0.5056999921798706 0.8421000242233276 0.6419000029563904 -0.765500009059906 0.04580000042915344
          -0.2492000013589859 -0.8956000208854675 -0.3684999942779541 0.8392000198364258 -0.36469998955726624 -0.4032999873161316
          0.9416999816894531 0.3181000053882599 -0.1096000000834465 0.26739999651908875 -0.07479999959468842 0.9606999754905701
          0.37929999828338623 0.7493000030517578 0.5428000092506409 -0.9063000082969666 -0.36230000853538513 -0.21770000457763672
          -0.9998000264167786 -0.008200000040233135 -0.0203000009059906 -0.868399977684021 -0.3797999918460846 0.3188000023365021
          -0.808899998664856 0.5791000127792358 0.10130000114440918 -0.46810001134872437 0.8145999908447266 0.3425000011920929
          -0.6764000058174133 0.3856000006198883 0.6274999976158142 0.03970000147819519 -0.5561000108718872 0.8302000164985657
          -0.6678000092506409 0.6718999743461609 -0.32019999623298645 -0.5486000180244446 0.4677000045776367 -0.6930999755859375
          -0.8205999732017517 0.09570000320672989 -0.5634999871253967 0.7491000294685364 -0.20880000293254852 0.6287999749183655
          0.5590000152587891 -0.6409000158309937 0.5260999798774719 0.6180999875068665 -0.6190999746322632 0.484499990940094
          0.1923999935388565 -0.5177000164985657 -0.8335999846458435 0.36250001192092896 -0.5365999937057495 -0.7620000243186951
          0.9032999873161316 -0.31299999356269836 0.29330000281333923 0.923799991607666 -0.29350000619888306 0.24580000340938568
          0.9336000084877014 -0.2151000052690506 0.2867000102996826 0.8787000179290771 -0.34040001034736633 -0.3346000015735626
          0.9264000058174133 -0.3434999883174896 0.15449999272823334 0.9276999831199646 -0.30230000615119934 -0.21899999678134918
          0.04129999876022339 0.33399999141693115 0.9416999816894531 -0.17599999904632568 0.1655000001192093 0.9703999757766724
          0.34850001335144043 0.2736000120639801 0.8964999914169312 -0.7210999727249146 0.0860000029206276 0.6875
          -0.8041999936103821 0.23149999976158142 0.5473999977111816 -0.25600001215934753 -0.23810000717639923 0.9369000196456909
          -0.392300009727478 -0.2533000111579895 0.8842999935150146 0.1550000011920929 -0.3089999854564667 0.9383999705314636
          0.9070000052452087 -0.4092000126838684 0.09960000216960907 0.5178999900817871 -0.6976000070571899 0.4950999915599823
          -0.15080000460147858 0.933899998664856 0.32409998774528503 0.0982000008225441 0.9934999942779541 0.057999998331069946
          0.20180000364780426 0.9603000283241272 0.19280000030994415 0.0731000006198883 0.9962999820709229 0.04600000008940697
          -0.42669999599456787 0.20649999380111694 0.8805000185966492 -0.47589999437332153 -0.07500000298023224 0.8762999773025513
          0.6184999942779541 -0.6435999870300293 -0.45080000162124634 0.8499000072479248 -0.4652999937534332 0.24729999899864197
          0.8628000020980835 0.29269999265670776 -0.4120999872684479 -0.9478999972343445 0.09070000052452087 0.30550000071525574
          -0.9153000116348267 0.09969999641180038 0.3901999890804291 -0.9280999898910522 0.2955999970436096 -0.2264000028371811
          -0.9717000126838684 0.2362000048160553 0.003000000026077032 -0.9388999938964844 0.33649998903274536 0.07270000129938126
          0.5619999766349792 -0.5475000143051147 -0.6200000047683716 -0.7617999911308289 0.6462000012397766 -0.04690000042319298
          -0.4049000144004822 0.8655999898910522 -0.2946999967098236 0.8292999863624573 0.37869998812675476 -0.4108000099658966
          0.8978000283241272 0.3864000141620636 -0.2110999971628189 0.9146999716758728 0.08910000324249268 -0.39430001378059387
          0.6251999735832214 0.7404000163078308 0.2468000054359436 -0.7739999890327454 0.2928999960422516 -0.5612999796867371
          -0.5254999995231628 0.2329999953508377 -0.8181999921798706 -0.8424999713897705 0.1720000058412552 -0.5105999708175659
          -0.33239999413490295 0.857699990272522 -0.39239999651908875 0.07760000228881836 0.8762000203132629 -0.4756999909877777
          -0.04540000110864639 0.7915999889373779 -0.6093999743461609 -0.7235999703407288 -0.5855000019073486 0.36559998989105225
          -0.7689999938011169 -0.46239998936653137 0.4413999915122986 -0.8260999917984009 -0.4900999963283539 0.27810001373291016
          -0.8374999761581421 -0.10530000180006027 0.5361999869346619 0.6434999704360962 -0.4645000100135803 0.6085000038146973
          0.1103999987244606 -0.34310001134872437 0.9327999949455261 0.2784999907016754 -0.4880000054836273 0.8271999955177307
          -0.6486999988555908 -0.7318999767303467 0.2084999978542328 0.8003000020980835 -0.46380001306533813 0.3799999952316284
          0.7027000188827515 -0.70660001039505 0.08330000191926956 0.6579999923706055 -0.6563000082969666 0.3693000078201294
          0.9735999703407288 -0.023499999195337296 -0.2273000031709671 0.7803000211715698 -0.1665000021457672 -0.6028000116348267
          -0.1031000018119812 0.2069000005722046 0.9728999733924866 0.08370000123977661 0.9904999732971191 0.10899999737739563
          -0.05169999971985817 -0.8942999839782715 0.44449999928474426 0.09369999915361404 0.20399999618530273 0.9745000004768372
          0.5882999897003174 -0.49720001220703125 0.6377999782562256 -0.8181999921798706 -0.39399999380111694 -0.4187000095844269
          0.4293000102043152 -0.8823999762535095 0.19269999861717224 -0.2957000136375427 0.6467000246047974 -0.7031000256538391
          -0.1469999998807907 0.8252000212669373 -0.5454000234603882 0.6473000049591064 -0.13279999792575836 0.7505999803543091
          0.3346000015735626 0.18160000443458557 0.9247000217437744 0.2928999960422516 -0.555899977684021 0.777899980545044
          0.3334999978542328 0.8765000104904175 -0.34709998965263367 0.5156000256538391 0.7473000288009644 -0.41909998655319214
          0.02969999983906746 0.9866999983787537 -0.1597999930381775 0.23690000176429749 0.9707000255584717 -0.039000000804662704
          -0.12620000541210175 0.9473999738693237 -0.2939999997615814 -0.08529999852180481 0.9786999821662903 0.1868000030517578
          0.36980000138282776 -0.9136999845504761 0.16840000450611115 0.6654999852180481 -0.7231000065803528 -0.1851000040769577
          0.2045000046491623 -0.7892000079154968 -0.5791000127792358 0.2558000087738037 -0.6559000015258789 -0.7102000117301941
          0.718999981880188 0.484499990940094 -0.4982999861240387 0.7398999929428101 0.28859999775886536 -0.607699990272522
          0.987500011920929 0.09809999912977219 0.12319999933242798 0.9944000244140625 0.10010000318288803 0.03449999913573265
          0.6902999877929688 0.7229999899864197 -0.0272000003606081 0.3255999982357025 0.9180999994277954 0.22609999775886536
          0.18709999322891235 0.9570000171661377 -0.22179999947547913 -0.4456999897956848 0.46149998903274536 -0.7670000195503235
          0.17509999871253967 0.28839999437332153 -0.9413999915122986 0.22200000286102295 0.34279999136924744 -0.9128000140190125
          -0.022099999710917473 -0.1281999945640564 -0.9915000200271606 -0.02889999933540821 -0.3449000120162964 -0.9381999969482422
          0.1754000037908554 -0.5235000252723694 -0.8338000178337097 0.2223999947309494 -0.506600022315979 -0.8330000042915344
          -0.9316999912261963 0.27469998598098755 0.23770000040531158 -0.9861999750137329 0.08910000324249268 0.13930000364780426
          0.5248000025749207 0.3702999949455261 -0.7664999961853027 0.5081999897956848 0.6628000140190125 -0.550000011920929
          0.9124000072479248 0.15929999947547913 -0.37709999084472656 0.7954000234603882 -0.35659998655319214 0.49000000953674316
          0.7818999886512756 -0.2793999910354614 0.557200014591217 0.578000009059906 -0.35740000009536743 0.7336000204086304
          0.1696999967098236 -0.5813999772071838 0.795799970626831 -0.16930000483989716 -0.30059999227523804 0.9386000037193298
          -0.7432000041007996 -0.42399999499320984 0.5174999833106995 0.996999979019165 -0.028699999675154686 0.07159999758005142
          0.7041000127792358 -0.10729999840259552 0.7019000053405762 0.8636999726295471 -0.41819998621940613 0.28139999508857727
          0.9621000289916992 -0.2720000147819519 0.01940000057220459 0.9789000153541565 -0.18369999527931213 -0.08940000087022781
          0.7664999961853027 -0.5972999930381775 0.23589999973773956 0.8007000088691711 -0.5367000102996826 0.2660999894142151
          0.7717000246047974 -0.5221999883651733 0.36309999227523804 0.9793000221252441 -0.017799999564886093 0.20160000026226044
          0.954800009727478 0.01679999940097332 0.29679998755455017 0.8518999814987183 0.0010999999940395355 0.5238000154495239
          0.3799999952316284 -0.009499999694526196 0.9248999953269958 0.6848000288009644 0.010099999606609344 0.7286999821662903
          0.3433000147342682 0.07509999722242355 -0.9362000226974487 0.07410000264644623 0.8126000165939331 -0.5781000256538391
          0.15330000221729279 0.5756000280380249 -0.8032000064849854 0.07509999722242355 0.6101999878883362 -0.7886999845504761
          -0.519599974155426 0.7724999785423279 0.36500000953674316 -0.19089999794960022 0.9606000185012817 0.20200000703334808
          -0.2004999965429306 0.9505000114440918 0.23759999871253967 0.9563000202178955 -0.07959999889135361 0.28139999508857727
          0.996399998664856 -0.03610000014305115 -0.07649999856948853 0.97079998254776 -0.23240000009536743 0.05869999900460243
          -0.07970000058412552 -0.7233999967575073 0.6858000159263611 -0.6072999835014343 -0.5181000232696533 0.6022999882698059
          -0.7333999872207642 -0.02370000071823597 0.6793000102043152 -0.5144000053405762 -0.6025000214576721 0.6103000044822693
          0.3433000147342682 -0.623199999332428 0.7027000188827515 -0.01209999993443489 -0.9377999901771545 0.34689998626708984
          0.07010000199079514 0.911300003528595 0.4058000147342682 0.43810001015663147 0.4291999936103821 0.7897999882698059
          0.5601000189781189 0.41110000014305115 0.7192000150680542 0.44429999589920044 -0.26840001344680786 0.8547000288963318
          0.4957999885082245 -0.6277999877929688 0.6000999808311462 -0.23520000278949738 -0.9666000008583069 0.10140000283718109
          0.3797000050544739 -0.8551999926567078 -0.3528999984264374 0.6004999876022339 -0.42669999599456787 -0.6761999726295471
          -0.4253999888896942 -0.8928999900817871 -0.14740000665187836 0.147599995136261 -0.59579998254776 0.7894999980926514
          -0.6899999976158142 -0.5389000177383423 0.4832000136375427 -0.12800000607967377 -0.9387000203132629 0.3199999928474426
          -0.04569999873638153 -0.8683000206947327 -0.49390000104904175 0.21289999783039093 -0.7692000269889832 -0.6025000214576721
          -0.412200003862381 -0.17239999771118164 0.8946999907493591 -0.5611000061035156 0.26660001277923584 0.7835999727249146
          -0.660099983215332 0.037300001829862595 0.7502999901771545 -0.4147000014781952 0.031700000166893005 0.9093999862670898
          0.6574000120162964 0.0333000011742115 0.7527999877929688 0.3416999876499176 0.6556000113487244 0.6733999848365784
          0.179299995303154 0.5882999897003174 0.7885000109672546 0.29420000314712524 0.3711000084877014 0.8808000087738037
          0.8167999982833862 -0.5680999755859375 -0.10109999775886536 0.8916000127792358 -0.3790000081062317 -0.24789999425411224
          0.8090999722480774 -0.5698000192642212 0.14390000700950623 0.6263999938964844 0.24629999697208405 -0.7394999861717224
          0.8492000102996826 0.27000001072883606 -0.453900009393692 0.10520000010728836 -0.4228000044822693 -0.9000999927520752
          0.053700000047683716 -0.44850000739097595 -0.8920999765396118 0.5220999717712402 -0.6972000002861023 0.4912000000476837
          0.6615999937057495 -0.20730000734329224 0.7207000255584717 -0.5699999928474426 -0.2289000004529953 0.7890999913215637
          0.27059999108314514 -0.9194999933242798 -0.2849999964237213 0.09939999878406525 -0.9423999786376953 -0.31940001249313354
          0.09210000187158585 -0.9912999868392944 -0.0940999984741211 -0.7261000275611877 -0.08640000224113464 -0.682200014591217
          -0.6554999947547913 -0.6097999811172485 -0.445499986410141 -0.5630999803543091 0.2825999855995178 0.7766000032424927
          -0.12250000238418579 -0.4490000009536743 0.8851000070571899 0.8641999959945679 -0.4401000142097473 0.24379999935626984
          0.6726999878883362 -0.5055999755859375 0.5401999950408936 0.5928000211715698 -0.7213000059127808 0.3580999970436096
          0.033399999141693115 -0.9089000225067139 0.4156999886035919 -0.20260000228881836 0.919700026512146 0.3361999988555908
          0.10859999805688858 -0.5227000117301941 0.8456000089645386 0.792900025844574 0.07720000296831131 0.6043999791145325
          0.1858000010251999 -0.8514999747276306 0.4902999997138977 -0.4142000079154968 -0.41769999265670776 0.8087000250816345
          -0.6258000135421753 -0.18559999763965607 0.7576000094413757 -0.17900000512599945 -0.5618000030517578 0.807699978351593
          0.42309999465942383 -0.6951000094413757 0.5812000036239624 0.6484000086784363 0.515999972820282 -0.5597000122070312
          0.12370000034570694 0.5633999705314636 -0.8167999982833862 0.13009999692440033 0.5411999821662903 -0.8307999968528748
          0.9415000081062317 0.33309999108314514 -0.050999999046325684 0.7646999955177307 0.48100000619888306 -0.42879998683929443
          -0.4262000024318695 -0.0502999983727932 0.9031999707221985 0.582099974155426 0.3192000091075897 0.7479000091552734
          -0.6416000127792358 0.7103999853134155 0.2892000079154968 -0.9294999837875366 0.3684000074863434 -0.018400000408291817
          -0.6087999939918518 0.7164999842643738 -0.34040001034736633 0.7573999762535095 0.1290999948978424 -0.6399999856948853
          0.6815999746322632 0.1371999979019165 -0.7186999917030334 -0.30959999561309814 0.33340001106262207 0.890500009059906
          -0.5947999954223633 0.6572999954223633 0.4627000093460083 0.6729999780654907 -0.5651000142097473 -0.4772000014781952
          0.6933000087738037 0.09130000323057175 0.714900016784668 0.9395999908447266 -0.3140999972820282 -0.13590000569820404
          0.3871999979019165 0.5256999731063843 -0.7573999762535095 0.3490000069141388 0.4957999885082245 -0.795199990272522
          0.17190000414848328 0.4781000018119812 -0.861299991607666 0.29120001196861267 0.7156000137329102 -0.6348999738693237
          -0.9404000043869019 0.2863999903202057 0.18330000340938568 -0.8151000142097473 -0.0010000000474974513 0.5792999863624573
          -0.6686999797821045 0.31769999861717224 0.6722999811172485 -0.02329999953508377 0.5598000288009644 0.8282999992370605
          0.7074999809265137 0.16740000247955322 0.6866000294685364 0.023600000888109207 0.9211999773979187 0.38830000162124634
          -0.5350000262260437 0.7896000146865845 0.30059999227523804 -0.5400000214576721 -0.7605000138282776 -0.36070001125335693
          -0.3538999855518341 -0.9121000170707703 -0.20669999718666077 -0.8486999869346619 0.164000004529953 -0.5029000043869019
          0.3287000060081482 0.8937000036239624 -0.305400013923645 -0.2328999936580658 0.8858000040054321 0.40130001306533813
          -0.23119999468326569 0.9049999713897705 0.3569999933242798 -0.5855000019073486 0.7678999900817871 0.25999999046325684
          -0.3982999920845032 0.8331999778747559 0.38350000977516174 -0.6417999863624573 0.6378999948501587 0.42570000886917114
          -0.6937000155448914 0.6126000285148621 0.3788999915122986 -0.5893999934196472 0.7731000185012817 0.23430000245571136
          0.033799998462200165 0.7473999857902527 0.6636000275611877 -0.09309999644756317 0.29679998755455017 0.9503999948501587
          -0.8246999979019165 0.5636000037193298 0.04690000042319298 -0.883899986743927 0.45350000262260437 -0.11400000005960464
          -0.8816999793052673 0.4672999978065491 0.0649000033736229 -0.742900013923645 0.4357999861240387 -0.5080000162124634
          -0.6955000162124634 0.6126999855041504 -0.37540000677108765 -0.18930000066757202 0.6741999983787537 -0.7139000296592712
          -0.4081999957561493 -0.08330000191926956 0.9090999960899353 -0.321399986743927 -0.16369999945163727 0.932699978351593
          -0.47519999742507935 -0.06069999933242798 0.8777999877929688 0.13420000672340393 -0.10580000281333923 0.9853000044822693
          -0.08079999685287476 -0.06589999794960022 0.9944999814033508 -0.7813000082969666 0.4690000116825104 0.41190001368522644
          -0.7659000158309937 0.42559999227523804 0.48190000653266907 -0.6990000009536743 0.20819999277591705 0.6840999722480774
          -0.012900000438094139 0.3188999891281128 -0.947700023651123 0.8054999709129333 -0.18000000715255737 -0.5645999908447266
          -0.1664000004529953 -0.016300000250339508 -0.9858999848365784 -0.9147999882698059 -0.40369999408721924 0.00930000003427267
          0.9381999969482422 0.10429999977350235 0.33000001311302185 0.38119998574256897 0.9241999983787537 0.021400000900030136
          0.7741000056266785 -0.6223999857902527 0.11559999734163284 0.9282000064849854 -0.3716000020503998 -0.019099999219179153
          0.7684999704360962 -0.45969998836517334 0.4449999928474426 0.8256999850273132 -0.3946000039577484 0.4032000005245209
          0.8661999702453613 0.28279998898506165 -0.41200000047683716 0.8281999826431274 0.12330000102519989 -0.5467000007629395
          0.9904999732971191 -0.00860000029206276 -0.13740000128746033 0.7174999713897705 0.1451999992132187 -0.6812999844551086
          0.2775999903678894 0.7526000142097473 -0.597100019454956 0.11299999803304672 -0.9843000173568726 0.13539999723434448
          -0.9415000081062317 -0.336899995803833 0.009700000286102295 -0.6287999749183655 -0.7703999876976013 0.10509999841451645
          -0.5544999837875366 -0.5598999857902527 0.6157000064849854 -0.11089999973773956 -0.9829999804496765 -0.14640000462532043
          0.007400000002235174 -0.7907000184059143 0.6121000051498413 -0.6761999726295471 -0.7361000180244446 0.028200000524520874
          -0.4918999969959259 -0.529699981212616 0.6909000277519226 0.6338000297546387 -0.6969000101089478 -0.33559998869895935
          0.586899995803833 -0.775600016117096 -0.23229999840259552 0.820900022983551 -0.5527999997138977 -0.14309999346733093
          0.8086000084877014 -0.5863000154495239 -0.04919999837875366 -0.8557999730110168 0.43709999322891235 0.2766999900341034
          -0.9240999817848206 0.2451000064611435 0.29330000281333923 -0.8434000015258789 0.39660000801086426 0.36239999532699585
          -0.9829000234603882 0.13330000638961792 0.12729999423027039 0.1703999936580658 0.9329000115394592 -0.31709998846054077
          -0.18199999630451202 0.9430000185966492 0.2784999907016754 0.11860000342130661 -0.9921000003814697 0.0406000018119812
          0.45089998841285706 -0.8309000134468079 0.32589998841285706 0.19089999794960022 -0.974399983882904 0.11890000104904175
          -0.8952000141143799 0.3249000012874603 -0.3050000071525574 -0.33169999718666077 -0.7368999719619751 0.5889999866485596
          -0.7267000079154968 -0.6330000162124634 -0.2667999863624573 -0.013399999588727951 0.5577999949455261 -0.8299000263214111
          0.9825999736785889 0.07029999792575836 -0.17159999907016754 0.973800003528595 -0.17739999294281006 0.1421000063419342
          0.22990000247955322 0.3458999991416931 -0.9096999764442444 0.10400000214576721 0.5006999969482422 -0.8593000173568726
          0.892300009727478 -0.43630000948905945 0.11599999666213989 0.9786999821662903 -0.1940000057220459 0.06769999861717224
          0.5839999914169312 0.21439999341964722 0.7828999757766724 0.4027999937534332 0.8047999739646912 0.4359000027179718
          0.2410999983549118 -0.8780999779701233 -0.4133000075817108 0.19740000367164612 -0.5507000088691711 -0.8109999895095825
          0.7907000184059143 -0.14980000257492065 0.5935999751091003 0.9363999962806702 -0.21570000052452087 0.2766000032424927
          -0.8154000043869019 0.020600000396370888 0.578499972820282 -0.91839998960495 0.29919999837875366 0.2590000033378601
          -0.3188000023365021 -0.7540000081062317 0.5742999911308289 -0.21950000524520874 0.18199999630451202 -0.9585000276565552
          0.43549999594688416 0.6771000027656555 -0.5932000279426575 0.6730999946594238 0.37059998512268066 -0.6399999856948853
          0.17479999363422394 -0.001500000013038516 -0.9846000075340271 -0.7926999926567078 0.00419999985024333 -0.609499990940094
          -0.4595000147819519 0.8263000249862671 0.3255999982357025 -0.2897000014781952 -0.75 0.5946000218391418
          0.00279999990016222 -0.8903999924659729 0.4551999866962433 -0.37880000472068787 -0.862500011920929 0.3353999853134155
          -0.6312999725341797 -0.6995999813079834 0.33480000495910645 -0.7574999928474426 -0.6291000247001648 -0.17470000684261322
          0.6934000253677368 0.7049999833106995 0.14869999885559082 0.7605000138282776 0.6377999782562256 -0.12240000069141388
          -0.7110000252723694 -0.48809999227523804 0.5062999725341797 -0.8100000023841858 -0.5864999890327454 0.005499999970197678
          0.14880000054836273 0.08709999918937683 0.9850000143051147 -0.023800000548362732 0.10459999740123749 -0.9941999912261963
          -0.3098999857902527 0.40790000557899475 -0.8587999939918518 -0.156700000166893 -0.17910000681877136 -0.9713000059127808
          -0.12890000641345978 -0.3337000012397766 -0.9337999820709229 0.7268999814987183 -0.6193000078201294 -0.29670000076293945
          0.15729999542236328 -0.7590000033378601 -0.6317999958992004 -0.18279999494552612 -0.6819999814033508 -0.7081000208854675
          -0.5508000254631042 -0.6711000204086304 -0.49619999527931213 -0.3172000050544739 0.7153000235557556 0.6226999759674072
          -0.30219998955726624 0.9448999762535095 0.1257999986410141 -0.8665000200271606 -0.45570001006126404 0.2037999927997589
          -0.8475000262260437 -0.38690000772476196 -0.36340001225471497 -0.3253999948501587 -0.6349999904632568 -0.7006000280380249
          0.7757999897003174 -0.5995000004768372 -0.19679999351501465 0.7311999797821045 -0.3953000009059906 -0.5559999942779541
          -0.1987999975681305 0.47510001063346863 0.857200026512146 -0.32510000467300415 0.7181000113487244 0.6152999997138977
          0.7128000259399414 -0.4952999949455261 -0.4964999854564667 0.9535999894142151 0.05009999871253967 -0.296999990940094
          -0.08349999785423279 -0.22759999334812164 -0.9702000021934509 -0.2766000032424927 -0.019999999552965164 -0.9607999920845032
          -0.16220000386238098 0.11919999867677689 -0.9794999957084656 0.4187000095844269 -0.6819000244140625 -0.5996999740600586
          -0.3817000091075897 -0.9228000044822693 -0.05209999904036522 -0.21639999747276306 -0.9559000134468079 -0.19840000569820404
          0.11670000106096268 -0.9531000256538391 -0.2791999876499176 -0.0471000000834465 0.9937999844551086 -0.10050000250339508
          -0.1712000072002411 0.902400016784668 0.3953999876976013 -0.47519999742507935 0.7766000032424927 0.41350001096725464
          -0.24410000443458557 0.8348000049591064 0.4934999942779541 0.3808000087738037 -0.3776000142097473 0.8440999984741211
          -0.18119999766349792 -0.980400025844574 -0.0778999999165535 -0.5541999936103821 -0.7810999751091003 0.2874999940395355