<?xml version="1.0"?>
<VTKFile type="PolyData" version="0.1" byte_order="LittleEndian" header_type="UInt32" compressor="vtkZLibDataCompressor">
  <PolyData>
    <FieldData>
      <Array type="String" Name="MaterialNames" NumberOfTuples="1" format="ascii">
        109 97 116 101 114 105 97 108 95 48 0
      </Array>
      <Array type="String" Name="MaterialLibraries" NumberOfTuples="1" format="ascii">
        109 97 116 101 114 105 97 108 46 109 116 108 0
      </Array>
    </FieldData>
    <Piece NumberOfPoints="979" NumberOfVerts="0" NumberOfLines="0" NumberOfStrips="0" NumberOfPolys="1885">
      <PointData Normals="Normals">
        <DataArray type="Float32" Name="Normals" NumberOfComponents="3" format="ascii" RangeMin="0.999927404422427" RangeMax="1.0000754062661588">
          0.05350000038743019 0.7351999878883362 0.6757000088691711 0.31610000133514404 0.8014000058174133 0.5077999830245972
          0.13189999759197235 0.8116999864578247 0.5690000057220459 -0.31380000710487366 -0.867900013923645 0.38510000705718994
          -0.4133000075817108 -0.8417999744415283 0.3472000062465668 -0.3422999978065491 -0.8580999970436096 0.3828999996185303
          -0.029400000348687172 0.2093999981880188 -0.977400004863739 -0.12020000070333481 0.3278999924659729 -0.9369999766349792
          0.0754999965429306 0.23739999532699585 -0.968500018119812 0.7260000109672546 0.022700000554323196 -0.6873000264167786
          0.816100001335144 -0.08399999886751175 -0.5716999769210815 0.652400016784668 -0.1234000027179718 -0.7477999925613403
          0.8235999941825867 0.22910000383853912 0.5188000202178955 0.8342999815940857 0.2142000049352646 0.5078999996185303
          0.7631000280380249 0.24330000579357147 0.5986999869346619 -0.54830002784729 -0.8162000179290771 0.18199999630451202
          -0.258899986743927 -0.9218000173568726 0.28859999775886536 -0.3203999996185303 -0.8616999983787537 0.3935000002384186
          -0.5626000165939331 0.1808999925851822 -0.8066999912261963 -0.47279998660087585 0.07270000129938126 -0.8781999945640564
          -0.48069998621940613 0.16750000417232513 -0.8607000112533569 -0.8414000272750854 0.3571999967098236 0.40560001134872437
          -0.7516000270843506 0.4465999901294708 0.48539999127388 -0.7978000044822693 0.47380000352859497 0.37279999256134033
          -0.32850000262260437 -0.866100013256073 0.3767000138759613 -0.23880000412464142 -0.9291999936103821 0.28189998865127563
          -0.2013999968767166 -0.9731000065803528 0.1120000034570694 -0.3255000114440918 0.48019999265670776 0.8144999742507935
          -0.10480000078678131 0.47679999470710754 0.8727999925613403 -0.20550000667572021 0.40389999747276306 0.8913999795913696
          -0.5081999897956848 -0.7210999727249146 -0.4708999991416931 -0.5074999928474426 -0.7804999947547913 -0.3650999963283539
          -0.5152000188827515 -0.5916000008583069 -0.6201000213623047 -0.762499988079071 -0.4377000033855438 0.476500004529953
          -0.715399980545044 -0.6553000211715698 0.2425999939441681 -0.70660001039505 -0.5475000143051147 0.44830000400543213
          -0.8752999901771545 0.4648999869823456 -0.13349999487400055 -0.823199987411499 0.5616000294685364 -0.08269999921321869
          -0.7936000227928162 0.5687000155448914 -0.21639999747276306 -0.5134999752044678 0.847100019454956 -0.13699999451637268
          -0.3215999901294708 0.9368000030517578 0.1378999948501587 -0.3452000021934509 0.9248999953269958 0.15950000286102295
          0.963699996471405 0.23389999568462372 0.1289999932050705 0.9284999966621399 0.2678000032901764 0.2572000026702881
          0.9789999723434448 0.14309999346733093 0.14560000598430634 0.09510000050067902 0.7972999811172485 -0.5960000157356262
          -0.12099999934434891 0.7598000168800354 -0.6388000249862671 -0.17170000076293945 0.8323000073432922 -0.5270000100135803
          0.3012999892234802 0.4244000017642975 -0.8539000153541565 0.5454999804496765 0.4368000030517578 -0.7153000235557556
          0.484499990940094 0.4894999861717224 -0.7250000238418579 -0.3917999863624573 -0.19539999961853027 -0.8989999890327454
          -0.40380001068115234 -0.121799997985363 -0.9067000150680542 -0.3154999911785126 -0.013299999758601189 -0.9488000273704529
          0.30889999866485596 0.444599986076355 0.8407999873161316 0.5236999988555908 0.34369999170303345 0.7795000076293945
          0.39570000767707825 0.33379998803138733 0.8555999994277954 0.1387999951839447 0.36739999055862427 0.9196000099182129
          0.34790000319480896 0.32580000162124634 0.8791000247001648 0.3068000078201294 0.2053000032901764 0.9294000267982483
          -0.5878999829292297 -0.766700029373169 0.2581000030040741 -0.5864999890327454 -0.6955000162124634 0.41510000824928284
          0.2833999991416931 -0.8377000093460083 0.4668999910354614 -0.11100000143051147 -0.8736000061035156 0.47380000352859497
          0.2653000056743622 -0.815500020980835 0.5142999887466431 0.9865000247955322 0.0820000022649765 0.1420000046491623
          0.9919000267982483 0.09730000048875809 -0.0812000036239624 0.4036000072956085 0.4909999966621399 -0.7720000147819519
          0.5630000233650208 0.551800012588501 -0.6151999831199646 -0.6671000123023987 -0.6427000164985657 -0.376800000667572
          -0.6661999821662903 -0.6399999856948853 -0.3828999996185303 -0.7161999940872192 -0.6536999940872192 -0.2443999946117401
          -0.902400016784668 0.4309000074863434 0.003599999938160181 -0.9549999833106995 0.29649999737739563 -0.008200000040233135
          0.25540000200271606 0.19439999759197235 -0.9470999836921692 0.274399995803833 0.2858000099658966 -0.9182000160217285
          -0.5439000129699707 -0.7271999716758728 0.4187999963760376 -0.5532000064849854 -0.7003999948501587 0.45100000500679016
          -0.5559999942779541 -0.6898999810218811 0.4636000096797943 -0.2538999915122986 -0.8592000007629395 0.4442000091075897
          -0.032499998807907104 -0.8734999895095825 0.48579999804496765 0.11469999700784683 -0.8680999875068665 0.4828999936580658
          0.8730000257492065 0.4693000018596649 0.13300000131130219 0.8325999975204468 0.5160999894142151 0.20080000162124634
          0.7440999746322632 0.6486999988555908 0.15960000455379486 -0.7178000211715698 0.4903999865055084 0.4941999912261963
          -0.6628000140190125 0.49799999594688416 0.5591999888420105 -0.6126999855041504 0.46810001134872437 0.6367999911308289
          -0.44269999861717224 0.8550000190734863 0.27000001072883606 -0.39579999446868896 0.891700029373169 0.21950000524520874
          -0.2468000054359436 0.9164000153541565 0.3151000142097473 -0.09969999641180038 -0.694100022315979 0.7128999829292297
          0.045099999755620956 -0.7900999784469604 0.6114000082015991 -0.15710000693798065 -0.8059999942779541 0.5706999897956848
          -0.17080000042915344 -0.8291000127792358 0.5324000120162964 -0.16899999976158142 -0.9394000172615051 0.29829999804496765
          -0.3125999867916107 -0.8190000057220459 0.4812000095844269 -0.16840000450611115 -0.9693999886512756 0.17880000174045563
          -0.14720000326633453 -0.9144999980926514 0.37689998745918274 -0.4499000012874603 0.4641000032424927 0.7630000114440918
          -0.3855000138282776 0.4009000062942505 0.8310999870300293 -0.5934000015258789 -0.7663000226020813 0.24619999527931213
          -0.428600013256073 -0.9032999873161316 0.01549999974668026 -0.5496000051498413 -0.7626000046730042 0.3411000072956085
          -0.25609999895095825 -0.718999981880188 0.6460999846458435 -0.37459999322891235 -0.6129000186920166 0.6956999897956848
          -0.1753000020980835 -0.47440001368522644 0.8626999855041504 -0.5685999989509583 0.025699999183416367 -0.8222000002861023
          -0.9151999950408936 -0.3765999972820282 -0.14350000023841858 -0.3889999985694885 -0.15569999814033508 -0.9079999923706055
          0.6050999760627747 0.5192000269889832 0.6035000085830688 0.5892000198364258 0.6331999897956848 0.5019000172615051
          0.6604999899864197 0.48100000619888306 0.5763999819755554 0.6880000233650208 0.609000027179718 -0.39480000734329224
          0.5131000280380249 0.6055999994277954 -0.6082000136375427 0.46880000829696655 0.7355999946594238 -0.48899999260902405
          -0.39800000190734863 -0.7967000007629395 0.45489999651908875 -0.09740000218153 -0.9531000256538391 0.2867000102996826
          -0.4050999879837036 -0.7247999906539917 0.557200014591217 -0.476500004529953 -0.782800018787384 0.4002000093460083
          -0.42980000376701355 -0.8004999756813049 0.41769999265670776 0.7218000292778015 0.39320001006126404 -0.569599986076355
          0.5745999813079834 0.4413999915122986 -0.6891999840736389 0.5361999869346619 0.08510000258684158 -0.8398000001907349
          0.365200012922287 0.06629999727010727 -0.928600013256073 0.4374000132083893 0.1712999939918518 -0.8827999830245972
          0.3652999997138977 0.35499998927116394 0.8605999946594238 0.11590000241994858 0.3490999937057495 0.9298999905586243
          0.19030000269412994 0.23829999566078186 0.9524000287055969 0.43560001254081726 0.5503000020980835 0.7123000025749207
          0.5734000205993652 0.5493000149726868 0.6078000068664551 0.6175000071525574 0.5246999859809875 0.5859000086784363
          -0.8029000163078308 -0.5705000162124634 0.1729000061750412 -0.6019999980926514 -0.7627999782562256 0.2362000048160553
          -0.7160000205039978 -0.645799994468689 0.2653999924659729 -0.9696000218391418 0.23000000417232513 0.08320000022649765
          -0.9251000285148621 0.37459999322891235 0.06239999830722809 -0.5257999897003174 -0.4580000042915344 -0.7167999744415283
          -0.5716000199317932 -0.6126999855041504 -0.5457000136375427 -0.44119998812675476 -0.0877000018954277 -0.8931000232696533
          -0.29339998960494995 -0.10930000245571136 -0.9496999979019165 -0.3402999937534332 0.0843999981880188 -0.9365000128746033
          -0.3352999985218048 -0.880299985408783 -0.33550000190734863 0.04809999838471413 -0.9049999713897705 -0.42260000109672546
          -0.38530001044273376 -0.8899999856948853 -0.24369999766349792 0.7372999787330627 0.0658000037074089 0.6722999811172485
          -0.4902999997138977 0.15970000624656677 -0.8568000197410583 -0.5716000199317932 0.2849999964237213 -0.7694000005722046
          -0.41999998688697815 0.31060001254081726 -0.8526999950408936 -0.6254000067710876 0.7281000018119812 -0.2808000147342682
          -0.6168000102043152 0.7549999952316284 -0.22269999980926514 -0.5504000186920166 0.7965999841690063 -0.24979999661445618
          -0.0860000029206276 0.10429999977350235 -0.9908000230789185 -0.15719999372959137 0.21950000524520874 -0.9628999829292297
          0.07100000232458115 -0.019500000402331352 -0.9973000288009644 -0.15209999680519104 0.026100000366568565 -0.9879999756813049
          0.08649999648332596 -0.06650000065565109 -0.9940000176429749 0.326200008392334 0.12729999423027039 -0.9366999864578247
          -0.3001999855041504 -0.14669999480247498 -0.9424999952316284 -0.30720001459121704 -0.7846999764442444 -0.5385000109672546
          0.8098999857902527 0.5557000041007996 -0.18770000338554382 0.8417999744415283 0.5343000292778015 0.07729999721050262
          0.7590000033378601 0.6201000213623047 -0.19850000739097595 -0.796999990940094 -0.29840001463890076 -0.5250999927520752
          -0.6870999932289124 -0.5985000133514404 -0.41190001368522644 -0.6247000098228455 -0.6851000189781189 -0.37470000982284546
          -0.5242000222206116 0.21230000257492065 -0.8246999979019165 -0.6705999970436096 0.3163999915122986 -0.6710000038146973
          -0.510200023651123 0.2768000066280365 -0.814300000667572 -0.8259999752044678 0.5062999725341797 -0.24770000576972961
          -0.8360999822616577 0.5353999733924866 -0.11949999630451202 -0.8349999785423279 0.5480999946594238 -0.048700001090765
          -0.7656000256538391 0.5449000000953674 0.34209999442100525 -0.7849000096321106 0.45719999074935913 0.41819998621940613
          -0.8264999985694885 0.5218999981880188 0.21119999885559082 -0.44179999828338623 -0.805899977684021 -0.39410001039505005
          -0.32670000195503235 -0.911300003528595 -0.25049999356269836 -0.05249999836087227 -0.949999988079071 -0.3077000081539154
          0.6064000129699707 -0.7799000144004822 -0.1551000028848648 0.8125 -0.09610000252723694 0.574999988079071
          0.9383999705314636 0.1111999973654747 0.32710000872612 -0.07029999792575836 -0.974399983882904 0.21330000460147858
          -0.4708999991416931 -0.8274999856948853 -0.3057999908924103 -0.5254999995231628 -0.7773000001907349 0.3458999991416931
          0.6643000245094299 -0.009800000116229057 0.7473999857902527 0.510200023651123 -0.012000000104308128 0.8600000143051147
          -0.12219999730587006 -0.9368000030517578 0.3278999924659729 -0.459199994802475 -0.8791999816894531 0.12710000574588776
          -0.21819999814033508 -0.9688000082969666 -0.11739999800920486 -0.3052999973297119 -0.6395000219345093 0.7055000066757202
          -0.38100001215934753 -0.6626999974250793 0.6446999907493591 -0.5813999772071838 -0.6687999963760376 0.46320000290870667
          -0.6739000082015991 0.09189999848604202 0.7330999970436096 -0.6471999883651733 0.11540000140666962 0.753600001335144
          -0.6665999889373779 -0.34779998660087585 0.6593000292778015 -0.7914999723434448 -0.17730000615119934 0.5848000049591064
          -0.4763000011444092 -0.6585999727249146 0.5824999809265137 -0.49889999628067017 -0.7272999882698059 0.47119998931884766
          -0.7414000034332275 -0.2721000015735626 -0.6133999824523926 -0.9088000059127808 -0.3650999963283539 -0.20190000534057617
          -0.8363000154495239 -0.5145000219345093 -0.18950000405311584 0.7856000065803528 0.4702000021934509 0.40220001339912415
          0.7324000000953674 0.4496999979019165 0.5112000107765198 0.7192999720573425 0.553600013256073 0.4196000099182129
          0.8999999761581421 0.39559999108314514 0.18299999833106995 0.8708000183105469 0.32440000772476196 0.3695000112056732
          0.861299991607666 0.42879998683929443 0.27250000834465027 -0.10899999737739563 0.5378000140190125 0.8360000252723694
          0.1137000024318695 0.5774999856948853 0.8084999918937683 -0.12520000338554382 0.585099995136261 0.8012999892234802
          -0.5841000080108643 0.28760001063346863 0.7590000033378601 -0.5692999958992004 0.3562999963760376 0.7408999800682068
          0.30309998989105225 -0.8741999864578247 0.37940001487731934 0.4171999990940094 -0.6884999871253967 0.5932000279426575
          0.5789999961853027 -0.6259999871253967 -0.5224000215530396 0.7480999827384949 -0.24070000648498535 -0.618399977684021
          -0.05700000002980232 -0.7633000016212463 -0.6434999704360962 -0.5055000185966492 -0.613099992275238 0.6071000099182129
          -0.6205000281333923 -0.7440999746322632 0.2476000040769577 0.41350001096725464 0.8971999883651733 0.15520000457763672
          0.5507000088691711 0.8222000002861023 0.14399999380111694 0.46459999680519104 0.885200023651123 -0.02459999918937683
          -0.3684000074863434 0.9059000015258789 -0.2087000012397766 0.07509999722242355 0.9966999888420105 0.032499998807907104
          0.08030000329017639 0.967199981212616 -0.24079999327659607 -0.43149998784065247 0.2897000014781952 -0.8543000221252441
          -0.9829000234603882 0.03310000151395798 -0.18129999935626984 -0.4499000012874603 -0.7152000069618225 0.5349000096321106
          -0.5674999952316284 -0.2720000147819519 0.7771000266075134 -0.3336000144481659 -0.5288000106811523 0.7804999947547913
          0.5407000184059143 -0.13230000436306 -0.8306999802589417 0.3197999894618988 -0.04430000111460686 -0.946399986743927
          0.44110000133514404 -0.05310000106692314 -0.8959000110626221 0.2434999942779541 0.120899997651577 -0.9623000025749207
          0.2508000135421753 -0.06599999964237213 -0.9657999873161316 0.39399999380111694 0.03480000048875809 -0.9185000061988831
          -0.07029999792575836 -0.972000002861023 0.2240999937057495 -0.1915999948978424 -0.9243000149726868 -0.3301999866962433
          0.20559999346733093 -0.6754999756813049 -0.7081000208854675 -0.193900004029274 -0.8603000044822693 -0.4713999927043915
          -0.635699987411499 -0.7261000275611877 -0.2621000111103058 -0.6409000158309937 -0.7588000297546387 0.1160999983549118
          -0.5777000188827515 -0.7620999813079834 -0.2922999858856201 0.04390000179409981 -0.8999000191688538 0.43389999866485596
          0.2718000113964081 -0.9200999736785889 0.28209999203681946 -0.07509999722242355 -0.9902999997138977 0.11670000106096268
          -0.3513999879360199 0.4997999966144562 -0.7915999889373779 -0.4648999869823456 0.52920001745224 -0.7099000215530396
          -0.436599999666214 0.5874000191688538 -0.6814000010490417 -0.3100999891757965 0.6270999908447266 -0.7146000266075134
          -0.13339999318122864 0.6134999990463257 -0.7782999873161316 -0.2612000107765198 0.5425000190734863 -0.7983999848365784
          0.09640000015497208 0.4903999865055084 0.866100013256073 0.027300000190734863 0.5860000252723694 0.8098000288009644
          0.14630000293254852 0.5551000237464905 0.8187999725341797 0.24650000035762787 0.47600001096725464 0.8442000150680542
          0.2290000021457672 0.4878999888896942 0.8422999978065491 0.17759999632835388 0.43160000443458557 0.8844000101089478
          -0.76419997215271 0.5218999981880188 -0.3790000081062317 -0.836899995803833 0.46790000796318054 -0.2842000126838684
          -0.5361999869346619 0.6682999730110168 -0.5156000256538391 -0.619700014591217 0.5342000126838684 -0.574999988079071
          -0.7179999947547913 0.5275999903678894 -0.45410001277923584 0.5146999955177307 0.7634000182151794 0.3903000056743622
          0.48399999737739563 0.7159000039100647 0.5031999945640564 0.5641999840736389 0.6513000130653381 0.5073999762535095
          0.8730000257492065 0.3084999918937683 0.37790000438690186 0.9402999877929688 0.16899999976158142 0.2955999970436096
          0.8705999851226807 -0.01269999984651804 -0.4916999936103821 0.9139999747276306 -0.029999999329447746 -0.40459999442100525
          0.9359999895095825 0.21610000729560852 -0.27799999713897705 0.7968000173568726 0.24199999868869781 -0.5536999702453613
          0.9049999713897705 0.35359999537467957 -0.2363000065088272 -0.4316999912261963 -0.9017999768257141 0.019700000062584877
          -0.6899999976158142 -0.6944000124931335 -0.20399999618530273 -0.6884999871253967 -0.7250999808311462 -0.01720000058412552
          -0.5734999775886536 0.4032000005245209 0.7131999731063843 -0.4952000081539154 0.44119998812675476 0.7483999729156494
          -0.4973999857902527 0.3937999904155731 0.7730000019073486 -0.10610000044107437 0.7139000296592712 0.6920999884605408
          -0.47519999742507935 -0.16349999606609344 -0.8646000027656555 -0.4593000113964081 0.04280000180006027 -0.8873000144958496
          -0.33219999074935913 0.09640000015497208 -0.9383000135421753 -0.38659998774528503 0.054999999701976776 -0.9205999970436096
          -0.3855000138282776 -0.07540000230073929 -0.9196000099182129 -0.3314000070095062 0.09319999814033508 -0.9388999938964844
          -0.3693999946117401 -0.7415000200271606 0.5601000189781189 0.15000000596046448 -0.6184999942779541 0.771399974822998
          0.49869999289512634 -0.3833000063896179 0.777400016784668 -0.121799997985363 -0.5906000137329102 0.7976999878883362
          0.32589998841285706 0.3303000032901764 0.8859000205993652 0.36660000681877136 0.2935999929904938 0.8828999996185303
          0.7545999884605408 0.3425999879837036 0.5595999956130981 0.7077000141143799 0.3637999892234802 0.6057000160217285
          0.7846999764442444 0.5094000101089478 -0.3531000018119812 0.8407999873161316 0.4163999855518341 -0.34599998593330383
          0.8820000290870667 0.45320001244544983 -0.12939999997615814 0.9983999729156494 0.04280000180006027 -0.03779999911785126
          0.9873999953269958 0.008500000461935997 -0.15770000219345093 0.9922000169754028 0.07329999655485153 0.10119999945163727
          -0.09220000356435776 0.4505000114440918 -0.8880000114440918 -0.012299999594688416 0.3691999912261963 -0.9293000102043152
          0.04399999976158142 0.4702000021934509 -0.8815000057220459 0.4383000135421753 0.29809999465942383 -0.8478999733924866
          0.41429999470710754 0.3634999990463257 -0.8343999981880188 0.6211000084877014 0.2754000127315521 -0.7337999939918518
          -0.14659999310970306 0.4641999900341034 -0.8734999895095825 -0.0034000000450760126 0.4481000006198883 -0.8939999938011169
          -0.012000000104308128 0.3215000033378601 -0.9467999935150146 0.06960000097751617 -0.7389000058174133 0.670199990272522
          0.22059999406337738 -0.8133000135421753 0.5383999943733215 -0.1858000010251999 -0.9111999869346619 0.3675999939441681
          -0.4674000144004822 -0.8416000008583069 0.27059999108314514 0.06960000097751617 -0.5235999822616577 0.8490999937057495
          0.2483000010251999 -0.5403000116348267 0.8040000200271606 -0.10920000076293945 -0.5882999897003174 -0.8012999892234802
          -0.9217000007629395 0.20329999923706055 -0.3303000032901764 -0.8087999820709229 0.040800001472234726 -0.5867000222206116
          -0.9158999919891357 -0.03240000084042549 -0.4002000093460083 -0.7511000037193298 0.2232999950647354 -0.6212999820709229
          -0.9092000126838684 0.06960000097751617 0.4104999899864197 -0.6773999929428101 -0.4458000063896179 0.5852000117301941
          -0.7752000093460083 -0.12790000438690186 0.6186000108718872 -0.9017000198364258 -0.37059998512268066 0.22259999811649323
          -0.9865999817848206 0.043299999088048935 0.1573999971151352 -0.9718999862670898 -0.18050000071525574 0.15129999816417694
          0.10159999877214432 -0.5952000021934509 0.7971000075340271 -0.1551000028848648 -0.824999988079071 0.5435000061988831
          0.44749999046325684 -0.016200000420212746 0.8942000269889832 0.13289999961853027 -0.7505999803543091 0.6471999883651733
          0.3864000141620636 -0.7299000024795532 0.5638999938964844 0.42010000348091125 -0.8944000005722046 0.15320000052452087
          -0.48890000581741333 -0.7555000185966492 0.4361000061035156 -0.24719999730587006 -0.8022000193595886 0.5435000061988831
          -0.5164999961853027 -0.8511999845504761 0.09290000051259995 -0.5112000107765198 -0.8213000297546387 -0.2531000077724457
          -0.5699999928474426 -0.7314000129699707 0.3743000030517578 0.5049999952316284 -0.8342000246047974 -0.22139999270439148
          0.8240000009536743 0.06700000166893005 -0.5626000165939331 0.739300012588501 0.10429999977350235 -0.6651999950408936
          0.8727999925613403 0.04520000144839287 -0.4860000014305115 0.6065000295639038 0.15489999949932098 -0.7797999978065491
          -0.38350000977516174 -0.4830999970436096 -0.7871000170707703 -0.6876000165939331 -0.3919000029563904 -0.611299991607666
          -0.6273000240325928 -0.6700999736785889 -0.396699994802475 -0.7195000052452087 -0.689300000667572 0.08460000157356262
          -0.3517000079154968 -0.9247999787330627 0.1454000025987625 0.2978000044822693 -0.8934000134468079 0.33629998564720154
          0.025299999862909317 -0.8952999711036682 0.4447999894618988 0.10209999978542328 -0.9524999856948853 0.28700000047683716
          0.4480000138282776 -0.7077999711036682 0.5461999773979187 0.22769999504089355 -0.9707000255584717 0.0771000012755394
          0.12290000170469284 -0.9514999985694885 -0.28220000863075256 -0.5856000185012817 -0.6722000241279602 -0.453000009059906
          0.3154999911785126 0.3165000081062317 0.894599974155426 0.45890000462532043 0.2590000033378601 0.8499000072479248
          0.3165999948978424 0.39250001311302185 0.8634999990463257 -0.0966000035405159 0.10670000314712524 -0.9896000027656555
          -0.2329999953508377 0.25290000438690186 -0.9390000104904175 0.04190000146627426 0.12460000067949295 -0.9912999868392944
          -0.02500000037252903 0.03799999877810478 -0.9990000128746033 0.0828000009059906 0.07209999859333038 -0.9940000176429749
          -0.5625 0.4431999921798706 0.6980000138282776 -0.6158000230789185 0.39259999990463257 0.6832000017166138
          -0.4936000108718872 0.34610000252723694 0.7979000210762024 -0.5613999962806702 0.7436000108718872 0.36309999227523804
          -0.7318999767303467 0.6089000105857849 0.3059000074863434 -0.6036999821662903 0.6069999933242798 0.5167999863624573
          -0.9034000039100647 0.413100004196167 0.1151999980211258 -0.857200026512146 0.5109999775886536 0.06459999829530716
          -0.824400007724762 0.5087000131607056 0.2484000027179718 0.6151000261306763 0.49630001187324524 -0.6126000285148621
          0.7142000198364258 0.5234000086784363 -0.46470001339912415 0.6212000250816345 0.605400025844574 -0.4975999891757965
          -0.36059999465942383 0.8992999792098999 0.2476000040769577 -0.025299999862909317 0.9197999835014343 0.39160001277923584
          -0.15629999339580536 0.8792999982833862 0.4498000144958496 0.5512999892234802 0.7150999903678894 0.42980000376701355
          0.3991999924182892 0.7785999774932861 0.48420000076293945 0.5453000068664551 0.7250000238418579 0.42080000042915344
          -0.6765000224113464 0.4002000093460083 -0.6182000041007996 -0.7696999907493591 0.4196000099182129 -0.4812000095844269
          -0.5095999836921692 0.40700000524520874 -0.7580999732017517 -0.3725000023841858 0.4659000039100647 0.8026000261306763
          -0.6832000017166138 -0.35530000925064087 0.6380000114440918 -0.5928000211715698 0.7353000044822693 -0.3285999894142151
          -0.593999981880188 0.7430999875068665 -0.30820000171661377 -0.5354999899864197 0.8011000156402588 0.26739999651908875
          -0.3070000112056732 0.8535000085830688 0.42100000381469727 -0.9800999760627747 -0.17880000174045563 0.08590000122785568
          -0.3434999883174896 -0.3935000002384186 0.8526999950408936 0.32019999623298645 -0.30230000615119934 -0.8978000283241272
          -0.8471999764442444 -0.29829999804496765 -0.43970000743865967 -0.056699998676776886 -0.9901000261306763 0.12849999964237213
          0.33869999647140503 -0.4375999867916107 0.8328999876976013 0.031099999323487282 -0.8482999801635742 0.5285999774932861
          -0.3352999985218048 -0.9412000179290771 -0.0421999990940094 -0.5026000142097473 -0.8564000129699707 0.11779999732971191
          0.45320001244544983 -0.8391000032424927 0.30090001225471497 0.698199987411499 -0.7157999873161316 -0.010099999606609344
          0.19519999623298645 -0.8550000190734863 0.4805000126361847 0.04619999974966049 -0.03819999843835831 0.998199999332428
          0.7117999792098999 -0.5260000228881836 0.46549999713897705 -0.5403000116348267 0.761900007724762 -0.3571000099182129
          -0.3700999915599823 0.7741000056266785 -0.5135999917984009 0.2913999855518341 0.3075999915599823 0.9057999849319458
          0.18889999389648438 0.4950000047683716 0.8481000065803528 0.20579999685287476 -0.7379999756813049 0.6427000164985657
          -0.2881999909877777 -0.7160000205039978 0.6358000040054321 0.08569999784231186 -0.7278000116348267 0.680400013923645
          0.15970000624656677 -0.8758999705314636 0.4553000032901764 -0.18649999797344208 -0.7967000007629395 0.5748999714851379
          0.05869999900460243 -0.8331999778747559 0.5498999953269958 -0.4081999957561493 -0.9125000238418579 -0.026200000196695328
          -0.5170999765396118 -0.73089998960495 -0.4453999996185303 -0.7617999911308289 -0.6035000085830688 0.23549999296665192
          -0.6169999837875366 -0.6341000199317932 0.4661000072956085 -0.6769000291824341 -0.7135000228881836 0.181099995970726
          -0.3109000027179718 -0.7616999745368958 0.5684000253677368 -0.18389999866485596 -0.8737000226974487 0.450300008058548
          -0.4625000059604645 -0.7875000238418579 0.4074000120162964 -0.21490000188350677 -0.9614999890327454 0.17149999737739563
          -0.5131999850273132 -0.8300999999046326 0.21809999644756317 0.8551999926567078 0.4584999978542328 0.24169999361038208
          -0.5254999995231628 -0.602400004863739 0.6007999777793884 -0.6754000186920166 -0.48500001430511475 0.5555999875068665
          -0.2928999960422516 -0.8824999928474426 0.36809998750686646 -0.30809998512268066 -0.8080999851226807 0.5019000172615051
          -0.29030001163482666 -0.7166000008583069 0.6341999769210815 0.6708999872207642 0.7163000106811523 -0.19189999997615814
          0.7139000296592712 0.6984999775886536 0.04879999905824661 0.6254000067710876 0.7789000272750854 -0.04749999940395355
          -0.13339999318122864 -0.023800000548362732 -0.9908000230789185 -0.30329999327659607 0.03999999910593033 -0.9520000219345093
          -0.44110000133514404 0.025299999862909317 -0.8970999717712402 -0.3021000027656555 0.030899999663233757 -0.9527999758720398
          -0.607699990272522 -0.6521999835968018 -0.45320001244544983 -0.6402000188827515 -0.5564000010490417 -0.529699981212616
          -0.33899998664855957 0.38269999623298645 0.8593999743461609 -0.4016000032424927 0.29670000076293945 0.8664000034332275
          -0.22360000014305115 0.25920000672340393 0.9395999908447266 -0.2134999930858612 0.36160001158714294 0.9075000286102295
          -0.6919000148773193 0.2825999855995178 0.6643999814987183 -0.600600004196167 0.47189998626708984 0.6453999876976013
          -0.5892999768257141 0.43880000710487366 0.6783999800682068 -0.7678999900817871 0.22509999573230743 0.5996999740600586
          -0.6615999937057495 0.08160000294446945 0.7454000115394592 -0.6470999717712402 0.36719998717308044 0.6680999994277954
          0.6514000296592712 0.539900004863739 0.5329999923706055 0.09189999848604202 0.6000999808311462 0.7946000099182129
          0.29809999465942383 0.49950000643730164 0.8133999705314636 0.2639999985694885 0.7023000121116638 0.6611999869346619
          0.7305999994277954 0.6790000200271606 -0.07199999690055847 0.9595000147819519 0.21639999747276306 0.18029999732971191