<?xml version="1.0"?>
<VTKFile type="PolyData" version="0.1" byte_order="LittleEndian" header_type="UInt32" compressor="vtkZLibDataCompressor">
  <PolyData>
    <FieldData>
      <Array type="String" Name="MaterialNames" NumberOfTuples="1" format="ascii">
        109 97 116 101 114 105 97 108 95 48 0
      </Array>
      <Array type="String" Name="MaterialLibraries" NumberOfTuples="1" format="ascii">
        109 97 116 101 114 105 97 108 46 109 116 108 0
      </Array>
    </FieldData>
    <Piece NumberOfPoints="825" NumberOfVerts="0" NumberOfLines="0" NumberOfStrips="0" NumberOfPolys="1646">
      <PointData Normals="Normals">
        <DataArray type="Float32" Name="Normals" NumberOfComponents="3" format="ascii" RangeMin="0.9999278892343545" RangeMax="1.0000725785213842">
          0.7452999949455261 -0.4336000084877014 0.5065000057220459 0.7391999959945679 -0.43869999051094055 0.5109000205993652
          0.6518999934196472 -0.694100022315979 0.305400013923645 0.7878000140190125 -0.2542000114917755 0.5609999895095825
          0.770799994468689 -0.2547000050544739 0.5839999914169312 0.8025000095367432 -0.2021999955177307 0.5613999962806702
          0.78329998254776 -0.20970000326633453 0.5853000283241272 0.6891000270843506 -0.6674000024795532 0.2822999954223633
          0.40860000252723694 -0.9126999974250793 -0.007300000172108412 0.8242999911308289 -0.4104999899864197 0.3898000121116638
          0.8537999987602234 -0.2709999978542328 0.44449999928474426 0.8133000135421753 -0.2264000028371811 0.5360000133514404
          0.8715000152587891 -0.21729999780654907 0.43959999084472656 0.920799970626831 -0.1809999942779541 0.34540000557899475
          0.8561000227928162 -0.21199999749660492 0.47130000591278076 0.9126999974250793 -0.1590999960899353 0.3763999938964844
          0.6140000224113464 -0.7883999943733215 0.03660000115633011 0.23260000348091125 -0.9577999711036682 -0.16910000145435333
          0.8170999884605408 -0.5611000061035156 0.13249999284744263 0.8949999809265137 -0.39809998869895935 0.20110000669956207
          0.9309999942779541 -0.2648000121116638 0.25119999051094055 0.9628000259399414 -0.1988999992609024 0.18279999494552612
          0.9674000144004822 -0.155799999833107 0.19949999451637268 0.45410001277923584 -0.8432000279426575 -0.28790000081062317
          0.5249000191688538 -0.7731000185012817 -0.3562000095844269 0.7045000195503235 -0.6875 -0.17640000581741333
          0.8338000178337097 -0.5472000241279602 -0.0731000006198883 0.9398999810218811 -0.34119999408721924 0.014800000004470348
          0.9761000275611877 -0.21649999916553497 -0.017799999564886093 0.9843999743461609 -0.17080000042915344 0.041099999099969864
          0.8065000176429749 -0.5424000024795532 -0.2354000061750412 0.9314000010490417 -0.3093999922275543 -0.19169999659061432
          0.6654999852180481 -0.4542999863624573 0.592199981212616 0.5037999749183655 -0.5055999755859375 0.7003999948501587
          0.35519999265670776 -0.866100013256073 0.3517000079154968 0.6661999821662903 -0.12150000035762787 0.73580002784729
          0.6148999929428101 -0.6826000213623047 0.39489999413490295 0.22030000388622284 -0.9588000178337097 0.1793999969959259
          0.7656000256538391 -0.0560000017285347 0.6409000158309937 0.7849000096321106 -0.22290000319480896 0.5781999826431274
          0.7378000020980835 -0.01850000023841858 0.6747999787330627 0.7330999970436096 0.07519999891519547 0.6758999824523926
          0.6915000081062317 0.06419999897480011 0.7196000218391418 0.6832000017166138 -0.2793000042438507 0.6747000217437744
          0.5960000157356262 -0.2667999863624573 0.7573000192642212 0.5898000001907349 -0.37119999527931213 0.717199981212616
          0.6895999908447266 -0.09749999642372131 0.7175999879837036 0.42289999127388 -0.8952000141143799 0.14079999923706055
          0.035599999129772186 -0.9947999715805054 -0.09539999812841415 0.7275999784469604 -0.5490999817848206 0.41119998693466187
          0.7885000109672546 -0.22669999301433563 0.5716999769210815 0.6970000267028809 -0.003700000001117587 0.7171000242233276
          0.7470999956130981 -0.1006999984383583 0.6571000218391418 0.679099977016449 -0.11029999703168869 0.7257000207901001
          0.670199990272522 -0.2207999974489212 0.7085000276565552 0.6190000176429749 -0.1695999950170517 0.7669000029563904
          0.6654000282287598 -0.3151000142097473 0.6766999959945679 0.6015999913215637 -0.2727000117301941 0.7508000135421753
          0.6798999905586243 -0.3840000033378601 0.6247000098228455 0.5820000171661377 -0.37209999561309814 0.7231000065803528
          0.7603999972343445 -0.3407000005245209 0.5529000163078308 0.8123000264167786 -0.18449999392032623 0.5533000230789185
          0.7615000009536743 0.14239999651908875 0.6323000192642212 0.7160000205039978 -0.0478999987244606 0.6965000033378601
          0.8557000160217285 -0.015699999406933784 0.517300009727478 0.8644999861717224 0.18140000104904175 0.46880000829696655
          0.1525000035762787 -0.9861000180244446 -0.06539999693632126 0.07599999755620956 -0.9904000163078308 -0.11509999632835388
          0.5605999827384949 -0.807699978351593 0.1826000064611435 0.7851999998092651 -0.47269999980926514 0.4000000059604645
          0.7870000004768372 -0.30390000343322754 0.536899983882904 0.7495999932289124 -0.18320000171661377 0.6359999775886536
          0.739799976348877 -0.21789999306201935 0.6365000009536743 0.7497000098228455 -0.274399995803833 0.6021999716758728
          0.7739999890327454 -0.33320000767707825 0.5382999777793884 0.8258000016212463 -0.33739998936653137 0.45179998874664307
          0.8914999961853027 -0.2328999936580658 0.388700008392334 0.9391000270843506 -0.047200001776218414 0.34049999713897705
          0.9380999803543091 0.1615000069141388 0.30649998784065247 0.3982999920845032 -0.9168000221252441 -0.028999999165534973
          -0.10040000081062317 -0.939300000667572 -0.3278999924659729 0.7056000232696533 -0.6527000069618225 0.27570000290870667
          0.8012999892234802 -0.2460000067949295 0.5454000234603882 0.8457000255584717 -0.2605000138282776 0.4657999873161316
          0.8873000144958496 -0.27900001406669617 0.36730000376701355 0.9337000250816345 -0.2206999957561493 0.28189998865127563
          0.9754999876022339 -0.062300000339746475 0.21119999885559082 0.9761000275611877 0.120899997651577 0.18050000071525574
          0.03700000047683716 -0.9366000294685364 -0.3483999967575073 -0.09070000052452087 -0.8881999850273132 -0.4503999948501587
          0.4205000102519989 -0.9046000242233276 -0.06970000267028809 0.9415000081062317 -0.19670000672340393 0.273499995470047
          0.9678000211715698 -0.16750000417232513 0.18809999525547028 0.9930999875068665 -0.05869999900460243 0.10119999945163727
          0.9932000041007996 0.09880000352859497 0.06199999898672104 0.06419999897480011 -0.9154999852180481 -0.39730000495910645
          -0.12280000001192093 -0.883899986743927 -0.4512999951839447 0.9829000234603882 -0.16210000216960907 0.0868000015616417
          0.9876999855041504 -0.13199999928474426 0.08370000123977661 0.9991999864578247 -0.03709999844431877 -0.014999999664723873
          0.9962999820709229 0.07240000367164612 -0.04639999940991402 0.1404000073671341 -0.8715999722480774 -0.46970000863075256
          0.970300018787384 -0.21199999749660492 -0.11640000343322754 0.982699990272522 -0.1704999953508377 -0.0723000019788742
          0.9861999750137329 -0.12780000269412994 -0.10509999841451645 0.9884999990463257 -0.010999999940395355 -0.15070000290870667
          0.9736999869346619 0.06040000170469284 -0.21950000524520874 -0.04560000076889992 -0.8129000067710876 -0.5806000232696533
          0.25429999828338623 -0.8116000294685364 -0.5259000062942505 0.0027000000700354576 -0.7279999852180481 -0.6855000257492065
          0.5824999809265137 -0.6718999743461609 -0.45739999413490295 0.8277000188827515 -0.415800005197525 -0.376800000667572
          0.9035999774932861 -0.3061000108718872 -0.29980000853538513 0.9520000219345093 -0.17759999632835388 -0.2493000030517578
          0.9319000244140625 -0.09560000151395798 -0.3497999906539917 0.9614999890327454 -0.08150000125169754 -0.26260000467300415
          0.4000999927520752 -0.6251000165939331 -0.670199990272522 0.6129999756813049 -0.5264999866485596 -0.5891000032424927
          0.8324000239372253 -0.31139999628067017 -0.45840001106262207 0.9017999768257141 -0.1559000015258789 -0.40290001034736633
          0.3531999886035919 -0.5001000165939331 0.7907000184059143 -0.028300000354647636 -0.4259999990463257 0.9042999744415283
          -0.007300000172108412 -0.8342999815940857 0.5512999892234802 0.5151000022888184 -0.1906999945640564 0.8356999754905701
          0.28679999709129333 -0.02979999966919422 0.9574999809265137 0.5740000009536743 0.11010000109672546 0.8113999962806702
          0.4309000074863434 0.1898999959230423 0.8822000026702881 0.31769999861717224 -0.8504999876022339 0.41909998655319214
          -0.13729999959468842 -0.9883000254631042 0.06700000166893005 0.6899999976158142 0.042899999767541885 0.722599983215332
          0.5541999936103821 0.26330000162124634 0.7896999716758728 0.692799985408783 0.17339999973773956 0.699999988079071
          0.6233000159263611 0.18299999833106995 0.7602999806404114 0.5080999732017517 -0.3488999903202057 0.7875000238418579
          0.5594000220298767 -0.20569999516010284 0.8029999732971191 0.515999972820282 -0.17960000038146973 0.8374999761581421
          0.45820000767707825 -0.3273000121116638 0.8263999819755554 0.5971999764442444 -0.015599999576807022 0.8019999861717224
          0.5527999997138977 0.05849999934434891 0.8313000202178955 0.583899974822998 0.14880000054836273 0.7980999946594238
          0.023099999874830246 -0.9990000128746033 -0.03889999911189079 -0.08659999817609787 -0.9912999868392944 -0.09920000284910202
          0.6474999785423279 0.003100000089034438 0.7620999813079834 0.628600001335144 0.08370000123977661 0.7731999754905701
          0.6054999828338623 -0.08789999783039093 0.7910000085830688 0.5706999897956848 -0.00989999994635582 0.8210999965667725
          0.5655999779701233 -0.20640000700950623 0.7983999848365784 0.5234000086784363 -0.15680000185966492 0.8374999761581421
          0.5425000190734863 -0.3321000039577484 0.7716000080108643 0.48590001463890076 -0.3073999881744385 0.8181999921798706
          0.5364000201225281 -0.36239999532699585 0.7621999979019165 0.6302000284194946 0.15839999914169312 0.7601000070571899
          0.7641000151634216 0.3384000062942505 0.5491999983787537 0.6628000140190125 0.3156999945640564 0.6790000200271606
          0.6851000189781189 0.4392000138759613 0.5810999870300293 -0.26159998774528503 -0.9140999913215637 -0.3098999857902527
          0.8593999743461609 0.3154999911785126 0.40230000019073486 0.7922999858856201 0.43059998750686646 0.43230000138282776
          -0.2085999995470047 -0.9348999857902527 -0.2870999872684479 -0.3368000090122223 -0.861299991607666 -0.3804999887943268
          0.9361000061035156 0.27959999442100525 0.21330000460147858 0.8999000191688538 0.3695000112056732 0.23160000145435333
          -0.40790000557899475 -0.7656000256538391 -0.4975000023841858 0.9674999713897705 0.2345999926328659 0.09470000118017197
          0.9258000254631042 0.37549999356269836 0.0430000014603138 0.8924000263214111 0.4507000148296356 0.02319999970495701
          0.8686000108718872 0.4544999897480011 0.1972000002861023 -0.3723999857902527 -0.7602999806404114 -0.5321999788284302
          -0.41589999198913574 -0.7064999938011169 -0.572700023651123 0.9754999876022339 0.219200000166893 -0.017100000753998756
          0.9301000237464905 0.364300012588501 -0.04619999974966049 -0.3702000081539154 -0.7113000154495239 -0.5975000262260437
          -0.4122999906539917 -0.6636999845504761 -0.6241000294685364 0.9668999910354614 0.1931000053882599 -0.16680000722408295
          0.90829998254776 0.3433000147342682 -0.23890000581741333 -0.4733000099658966 -0.6119999885559082 -0.6335999965667725
          -0.29910001158714294 -0.7529000043869019 -0.5861999988555908 -0.46000000834465027 -0.6207000017166138 -0.6348999738693237
          0.9262999892234802 0.1965000033378601 -0.321399986743927 0.8440999984741211 0.34369999170303345 -0.4115999937057495
          -0.3714999854564667 -0.6542999744415283 -0.6586999893188477 -0.4004000127315521 -0.6240000128746033 -0.6711000204086304
          0.917900025844574 -0.03020000085234642 -0.39559999108314514 0.9054999947547913 0.0568000003695488 -0.4205000102519989
          0.8388000130653381 0.22259999811649323 -0.4968000054359436 -0.04129999876022339 -0.6607000231742859 -0.7494999766349792
          0.33640000224113464 -0.6323000192642212 -0.6978999972343445 -0.06629999727010727 -0.6527000069618225 -0.7547000050544739
          0.619700014591217 -0.4226999878883362 -0.661300003528595 0.7746000289916992 -0.22920000553131104 -0.5895000100135803
          0.8420000076293945 -0.06069999933242798 -0.5360000133514404 0.8255000114440918 0.05460000038146973 -0.5616999864578247
          0.777899980545044 0.15119999647140503 -0.6098999977111816 0.18619999289512634 -0.5641999840736389 -0.8044000267982483
          0.48030000925064087 -0.376800000667572 -0.7921000123023987 0.6496000289916992 -0.14710000157356262 -0.7458999752998352
          -0.3709000051021576 -0.41200000047683716 0.8323000073432922 -0.39719998836517334 -0.8148999810218811 0.4221000075340271
          -0.029500000178813934 -0.05079999938607216 0.9983000159263611 0.24269999563694 0.21739999949932098 0.9453999996185303
          0.4512999951839447 0.3019999861717224 0.8396999835968018 0.3682999908924103 0.28049999475479126 0.8863999843597412
          0.45489999651908875 0.260699987411499 0.8514999747276306 0.38920000195503235 -0.3271999955177307 0.8611000180244446
          0.41179999709129333 -0.241799995303154 0.878600001335144 0.3596999943256378 -0.21469999849796295 0.9081000089645386
          0.349700003862381 -0.3046000003814697 0.8859999775886536 0.46320000290870667 -0.051100000739097595 0.8848000168800354
          0.38019999861717224 0.006800000090152025 0.9248999953269958 0.5078999996185303 0.12770000100135803 0.8518999814987183
          0.39340001344680786 0.17980000376701355 0.9016000032424927 0.5033000111579895 0.24549999833106995 0.828499972820282
          -0.4810999929904938 -0.8705000281333923 -0.10369999706745148 0.5412999987602234 0.09229999780654907 0.8357999920845032
          0.5013999938964844 0.18860000371932983 0.8443999886512756 0.49399998784065247 -0.05570000037550926 0.8676999807357788
          0.4578000009059906 0.009499999694526196 0.8889999985694885 0.4487999975681305 -0.24420000612735748 0.8596000075340271
          0.4066999852657318 -0.18150000274181366 0.8952999711036682 0.4336000084877014 -0.3490999937057495 0.8306999802589417
          0.5766000151634216 0.2786000072956085 0.7680000066757202 0.5443000197410583 0.2879999876022339 0.7878999710083008
          0.5982999801635742 0.385699987411499 0.7023000121116638 0.5468000173568726 0.38749998807907104 0.7422000169754028
          0.612500011920929 0.4372999966144562 0.6585000157356262 -0.3499000072479248 -0.8967000246047974 -0.2709999978542328
          -0.41690000891685486 -0.8381999731063843 -0.3513999879360199 0.6859999895095825 0.492900013923645 0.5351999998092651
          -0.46470001339912415 -0.7534000277519226 -0.4652999937534332 0.7160000205039978 0.5331000089645386 0.45080000162124634
          0.8126999735832214 0.451200008392334 0.3686999976634979 0.7663999795913696 0.5619999766349792 0.3111000061035156
          -0.4230000078678131 -0.7724000215530396 -0.47369998693466187 -0.5037999749183655 -0.6807000041007996 -0.5317999720573425
          0.8131999969482422 0.5726000070571899 0.1039000004529953 -0.5174999833106995 -0.6520000100135803 -0.554099977016449
          -0.46950000524520874 -0.6625000238418579 -0.5837000012397766 -0.5055999755859375 -0.6432999968528748 -0.5748999714851379
          0.8183000087738037 0.5659999847412109 -0.10040000081062317 -0.4902999997138977 -0.6407999992370605 -0.5907999873161316
          -0.4584999978542328 -0.6126999855041504 -0.6438000202178955 0.864799976348877 0.4832000136375427 -0.13650000095367432
          0.8241999745368958 0.5454999804496765 -0.1525000035762787 -0.4708999991416931 -0.5525000095367432 -0.6877999901771545
          0.8224999904632568 0.4537000060081482 -0.34290000796318054 0.762499988079071 0.5651000142097473 -0.3149000108242035
          -0.5551000237464905 -0.5389999747276306 -0.6334999799728394 -0.5559999942779541 -0.5443999767303467 -0.6280999779701233
          -0.5228000283241272 -0.5178999900817871 -0.6771000027656555 -0.5674999952316284 -0.5620999932289124 -0.6017000079154968
          0.7436000108718872 0.4422000050544739 -0.5016000270843506 0.7053999900817871 0.5253000259399414 -0.47589999437332153
          -0.5349000096321106 -0.6281999945640564 -0.5649999976158142 0.7254999876022339 0.31310001015663147 -0.6129000186920166
          0.7063999772071838 0.4034999907016754 -0.58160001039505 -0.3643999993801117 -0.6496999859809875 -0.6672000288963318
          -0.1753000020980835 -0.6776999831199646 -0.7142000198364258 0.7243000268936157 0.04699999839067459 -0.6879000067710876
          0.6650999784469604 0.1737000048160553 -0.7263000011444092 0.6470999717712402 0.2565000057220459 -0.7179999947547913
          0.14910000562667847 -0.45739999413490295 -0.8766999840736389 0.3937000036239624 -0.16899999976158142 -0.9035999774932861
          0.538100004196167 0.051100000739097595 -0.8413000106811523 0.016100000590085983 0.006300000008195639 0.9998999834060669
          -0.17100000381469727 -0.07970000058412552 0.9821000099182129 -0.37529999017715454 -0.3515999913215637 0.857699990272522
          0.10339999943971634 0.16500000655651093 0.98089998960495 0.31380000710487366 -0.02239999920129776 0.9491999745368958
          0.2687999904155731 0.007799999788403511 0.9631999731063843 0.258899986743927 -0.15940000116825104 0.9527000188827515
          0.31520000100135803 0.1354999989271164 0.939300000667572 0.26100000739097595 0.17159999907016754 0.949999988079071
          -0.5968000292778015 -0.43639999628067017 0.67330002784729 -0.65829998254776 -0.6967999935150146 0.2849000096321106
          0.18039999902248383 0.2061000019311905 0.9617999792098999 0.2678000032901764 0.2295999974012375 0.935699999332428
          0.44339999556541443 0.1031000018119812 0.8903999924659729 0.3626999855041504 0.13650000095367432 0.9218999743461609
          0.42250001430511475 -0.08959999680519104 0.9018999934196472 0.3878999948501587 -0.05700000002980232 0.9199000000953674
          0.3675999939441681 -0.24490000307559967 0.8970999717712402 0.3610000014305115 -0.22669999301433563 0.9046000242233276
          0.29679998755455017 -0.22630000114440918 0.9276999831199646 0.3160000145435333 0.24580000340938568 0.9164000153541565
          0.49959999322891235 0.3400999903678894 0.7967000007629395 0.3659000098705292 0.33070001006126404 0.8698999881744385
          0.44110000133514404 0.42149999737739563 0.7922999858856201 -0.6370000243186951 -0.7526999711990356 -0.1664000004529953
          0.48420000076293945 0.45669999718666077 0.7462999820709229 0.6262000203132629 0.5116999745368958 0.5881999731063843
          0.526199996471405 0.4839000105857849 0.6991999745368958 0.534600019454956 0.5996000170707703 0.5954999923706055
          -0.5737000107765198 -0.7228999733924866 -0.38499999046325684 -0.5673999786376953 -0.6901000142097473 -0.44929999113082886
          0.650600016117096 0.5925999879837036 0.4749000072479248 -0.5605999827384949 -0.642300009727478 -0.5227000117301941
          -0.5188000202178955 -0.6686000227928162 -0.532800018787384 -0.5586000084877014 -0.6243000030517578 -0.5461999773979187
          0.7422999739646912 0.6111999750137329 0.27459999918937683 -0.5486999750137329 -0.6126000285148621 -0.5688999891281128
          0.7766000032424927 0.6297000050544739 0.02019999921321869 0.7325999736785889 0.6794000267982483 0.04019999876618385
          0.7010999917984009 0.6751000285148621 0.2296999990940094 -0.5514000058174133 -0.6157000064849854 -0.5629000067710876
          -0.5630000233650208 -0.611299991607666 -0.5562000274658203 0.7764999866485596 0.6053000092506409 -0.17489999532699585
          0.7134000062942505 0.6773999929428101 -0.17910000681877136 -0.531499981880188 -0.6122000217437744 -0.5853999853134155
          -0.491100013256073 -0.5935999751091003 -0.6376000046730042 0.7182999849319458 0.6122000217437744 -0.3305000066757202
          0.7014999985694885 0.6466000080108643 -0.299699991941452 -0.4099000096321106 -0.5389000177383423 -0.7358999848365784
          -0.47510001063346863 -0.5160999894142151 -0.7127000093460083 0.6359000205993652 0.6207000017166138 -0.4586000144481659
          -0.5023999810218811 -0.5533999800682068 -0.6643999814987183 -0.5698000192642212 -0.6301000118255615 -0.5274999737739563
          0.607200026512146 0.5242999792098999 -0.5968999862670898 0.5665000081062317 0.5878000259399414 -0.5774999856948853
          -0.5651000142097473 -0.6934000253677368 -0.4471000134944916 -0.4620000123977661 -0.669700026512146 -0.5813999772071838
          -0.4447999894618988 -0.7879999876022339 -0.42559999227523804 0.6162999868392944 0.37959998846054077 -0.6899999976158142
          0.5705000162124634 0.49050000309944153 -0.6586999893188477 -0.24799999594688416 -0.820900022983551 -0.5145000219345093
          0.4812000095844269 0.23330000042915344 -0.8450000286102295 0.4478999972343445 0.32989999651908875 -0.8309999704360962
          0.5062999725341797 0.4124999940395355 -0.7573000192642212 -0.0771000012755394 -0.6647999882698059 -0.7430999875068665
          0.04520000144839287 -0.4551999866962433 -0.88919997215271 0.20980000495910645 -0.1509999930858612 -0.9660000205039978
          0.335099995136261 0.08529999852180481 -0.9383000135421753 -0.3361999988555908 -0.1972000002861023 0.9208999872207642
          -0.484499990940094 -0.4916999936103821 0.7235000133514404 0.2062000036239624 0.18770000338554382 0.9603000283241272
          0.010099999606609344 0.06449999660253525 0.9979000091552734 0.29840001463890076 0.1266999989748001 0.9459999799728394
          0.19280000030994415 0.09269999712705612 0.9768999814987183 0.3370000123977661 -0.01269999984651804 0.9413999915122986
          0.24269999563694 -0.005400000140070915 0.9700999855995178 0.34549999237060547 -0.1542000025510788 0.9257000088691711
          0.2680000066757202 -0.10859999805688858 0.9573000073432922 0.3172000050544739 -0.2190999984741211 0.9226999878883362
          0.23559999465942383 -0.147599995136261 0.9606000185012817 0.23589999973773956 -0.08810000121593475 0.9678000211715698
          0.24690000712871552 0.10480000078678131 0.9632999897003174 0.2685000002384186 0.20960000157356262 0.9401999711990356
          0.2784999907016754 0.29170000553131104 0.9150999784469604 0.30799999833106995 0.3903000056743622 0.8676000237464905
          -0.7712000012397766 -0.6290000081062317 0.09809999912977219 -0.711899995803833 -0.6482999920845032 0.2700999975204468
          0.36469998955726624 0.4794999957084656 0.7982000112533569 0.3874000012874603 0.5662000179290771 0.7275000214576721
          -0.6883000135421753 -0.6700999736785889 -0.2777000069618225 -0.7002999782562256 -0.6567999720573425 -0.27950000762939453
          0.4239000082015991 0.5916000008583069 0.6858000159263611 0.4560999870300293 0.6794999837875366 0.5745999813079834
          -0.6089000105857849 -0.6327000260353088 -0.47850000858306885 0.5245000123977661 0.692300021648407 0.49559998512268066
          0.6523000001907349 0.6474000215530396 0.39430001378059387 0.5446000099182129 0.7718999981880188 0.3278999924659729
          -0.5770000219345093 -0.6047999858856201 -0.548799991607666 0.5981000065803528 0.7928000092506409 0.11720000207424164
          -0.5656999945640564 -0.5764999985694885 -0.5896000266075134 -0.5662000179290771 -0.567300021648407 -0.5979999899864197
          0.6218000054359436 0.7781000137329102 -0.08869999647140503 -0.6013000011444092 -0.5569000244140625 -0.5728999972343445
          -0.5843999981880188 -0.5742999911308289 -0.573199987411499 -0.6037999987602234 -0.551800012588501 -0.5752999782562256
          0.5916000008583069 0.7508999705314636 -0.29350000619888306 -0.5893999934196472 -0.5281000137329102 -0.6114000082015991
          -0.4966000020503998 -0.5166000127792358 -0.6976000070571899 -0.5454999804496765 -0.45899999141693115 -0.701200008392334
          0.6371999979019165 0.6292999982833862 -0.4449000060558319 0.5741000175476074 0.7073000073432922 -0.4124000072479248
          -0.4519999921321869 -0.5041000247001648 -0.7358999848365784 -0.4884999990463257 -0.5989999771118164 -0.6345000267028809
          0.5389000177383423 0.6406999826431274 -0.5468999743461609 0.49729999899864197 0.6807000041007996 -0.5378999710083008
          -0.5460000038146973 -0.7103999853134155 -0.4442000091075897 -0.5536999702453613 -0.7251999974250793 -0.4092000126838684
          -0.5430999994277954 -0.7840999960899353 -0.3003000020980835 0.47620001435279846 0.5716999769210815 -0.6680999994277954
          0.44839999079704285 0.619700014591217 -0.64410001039505 -0.4781999886035919 -0.8245000243186951 -0.3025999963283539
          0.4244999885559082 0.5051000118255615 -0.7513999938964844 -0.35670000314712524 -0.8105999827384949 -0.4643000066280365
          0.24300000071525574 0.25859999656677246 -0.9348999857902527 0.2329999953508377 0.3693000078201294 -0.8996000289916992
          0.31369999051094055 0.4242999851703644 -0.849399983882904 -0.13359999656677246 -0.652899980545044 -0.7455000281333923
          -0.018300000578165054 -0.37439998984336853 -0.9271000027656555 0.08320000022649765 -0.12030000239610672 -0.989300012588501
          0.14550000429153442 0.14640000462532043 -0.9785000085830688 0.10369999706745148 -0.03959999978542328 0.9937999844551086
          0.13289999961853027 0.03840000182390213 0.9904000163078308 0.002400000113993883 0.08529999852180481 0.996399998664856
          -0.001500000013038516 0.041200000792741776 0.9991999864578247 0.18610000610351562 0.14959999918937683 0.9710999727249146
          0.06780000030994415 0.15569999814033508 0.9854999780654907 0.17870000004768372 0.21940000355243683 0.9591000080108643
          -0.5864999890327454 -0.30410000681877136 0.7506999969482422 -0.6654999852180481 -0.5611000061035156 0.49219998717308044
          -0.2524000108242035 -0.03539999946951866 0.9670000076293945 -0.014600000344216824 0.0608999989926815 0.9980000257492065
          0.03669999912381172 0.012400000356137753 0.9991999864578247 0.08760000020265579 -0.04639999940991402 0.9951000213623047
          0.2605000138282776 0.23180000483989716 0.9372000098228455 0.29499998688697815 0.2915000021457672 0.9099000096321106
          0.31049999594688416 0.3898000121116638 0.8669999837875366 0.32499998807907104 0.4846000075340271 0.8120999932289124
          -0.7462000250816345 -0.6646000146865845 -0.03970000147819519 0.32580000162124634 0.5443000197410583 0.7731000185012817
          0.35519999265670776 0.6301000118255615 0.690500020980835 -0.7106999754905701 -0.6194000244140625 -0.3336000144481659
          0.3702999949455261 0.6912999749183655 0.6204000115394592 0.36959999799728394 0.7613999843597412 0.5327000021934509
          -0.6585999727249146 -0.614799976348877 -0.43380001187324524 -0.6140999794006348 -0.609000027179718 -0.5019000172615051
          0.4185999929904938 0.7879999876022339 0.4514000117778778 0.43560001254081726 0.8610000014305115 0.26249998807907104
          -0.5986999869346619 -0.5774000287055969 -0.5551000237464905 -0.5695000290870667 -0.5608999729156494 -0.6008999943733215
          0.4749000072479248 0.8794999718666077 0.03009999915957451 -0.5648000240325928 -0.5353000164031982 -0.6280999779701233
          -0.5903000235557556 -0.5315999984741211 -0.6074000000953674 -0.5634999871253967 -0.5723000168800354 -0.59579998254776
          0.4747999906539917 0.8543000221252441 -0.21140000224113464 -0.5965999960899353 -0.5611000061035156 -0.5738000273704529
          -0.6208000183105469 -0.5364000201225281 -0.5716999769210815 -0.5523999929428101 -0.5608000159263611 -0.6166999936103821
          0.4334000051021576 0.7972000241279602 -0.420199990272522 -0.5397999882698059 -0.5092999935150146 -0.6703000068664551
          -0.5267999768257141 -0.47679999470710754 -0.7037000060081482 -0.5012999773025513 -0.5605999827384949 -0.6592000126838684
          0.4205000102519989 0.7466999888420105 -0.5153999924659729 -0.4964999854564667 -0.6215000152587891 -0.6061000227928162
          -0.5228999853134155 -0.7063000202178955 -0.4772000014781952 -0.538100004196167 -0.7283999919891357 -0.42410001158714294
          0.385699987411499 0.6782000064849854 -0.6255000233650208 0.3716999888420105 0.7131999731063843 -0.5942999720573425
          -0.5889000296592712 -0.7548999786376953 -0.28850001096725464 0.3264000117778778 0.5820000171661377 -0.7447999715805054
          0.32199999690055847 0.6273999810218811 -0.7089999914169312 -0.5917999744415283 -0.7501000165939331 -0.295199990272522
          0.2912999987602234 0.4902999997138977 -0.821399986743927 0.1543000042438507 0.4099999964237213 -0.8988999724388123
          0.1680999994277954 0.49810001254081726 -0.8507000207901001 -0.5235000252723694 -0.7021999955177307 -0.48249998688697815
          -0.3061000108718872 -0.6279000043869019 -0.7156000137329102 -0.45809999108314514 -0.5394999980926514 -0.7063999772071838
          0.10040000081062317 0.34139999747276306 -0.934499979019165 -0.14139999449253082 -0.35190001130104065 -0.9253000020980835
          0.0010999999940395355 -0.02019999921321869 -0.9998000264167786 0.04879999905824661 0.22849999368190765 -0.9722999930381775
          -0.14630000293254852 0.025200000032782555 0.9889000058174133 -0.09709999710321426 0.06629999727010727 0.9930999875068665