<?xml version="1.0"?>
<VTKFile type="PolyData" version="0.1" byte_order="LittleEndian" header_type="UInt32" compressor="vtkZLibDataCompressor">
  <PolyData>
    <FieldData>
      <Array type="String" Name="MaterialNames" NumberOfTuples="1" format="ascii">
        109 97 116 101 114 105 97 108 95 48 0
      </Array>
      <Array type="String" Name="MaterialLibraries" NumberOfTuples="1" format="ascii">
        109 97 116 101 114 105 97 108 46 109 116 108 0
      </Array>
    </FieldData>
    <Piece NumberOfPoints="345" NumberOfVerts="0" NumberOfLines="0" NumberOfStrips="0" NumberOfPolys="654">
      <PointData Normals="Normals">
        <DataArray type="Float32" Name="Normals" NumberOfComponents="3" format="ascii" RangeMin="0.9999301331624829" RangeMax="1.0000679575586633">
          -0.3070000112056732 0.92330002784729 0.23090000450611115 0.0010000000474974513 0.9607999920845032 -0.27709999680519104
          0.38119998574256897 0.9004999995231628 -0.20919999480247498 -0.03290000185370445 0.8242999911308289 -0.5651999711990356
          0.3416000008583069 0.6317999958992004 -0.6956999897956848 0.850600004196167 -0.03319999948143959 -0.5248000025749207
          0.5530999898910522 0.25 -0.794700026512146 0.9139999747276306 0.3612000048160553 -0.18479999899864197
          0.5138999819755554 0.6899999976158142 -0.5098000168800354 0.211899995803833 0.28999999165534973 -0.9333000183105469
          0.8884999752044678 0.4528000056743622 -0.07500000298023224 0.8370000123977661 0.21070000529289246 0.5049999952316284
          0.9557999968528748 -0.06750000268220901 0.28600001335144043 0.6019999980926514 0.7728000283241272 0.20069999992847443
          -0.28450000286102295 0.7523999810218811 0.5940999984741211 -0.5817999839782715 0.16329999268054962 0.7968000173568726
          -0.5961999893188477 0.5997999906539917 0.5336999893188477 0.8162000179290771 0.36410000920295715 0.4487000107765198
          0.8503000140190125 0.474700003862381 -0.22709999978542328 0.7207000255584717 0.5267000198364258 -0.4507000148296356
          0.5375999808311462 0.7595999836921692 -0.366100013256073 0.3734999895095825 0.3853999972343445 -0.8438000082969666
          0.5371000170707703 0.637499988079071 -0.5523999929428101 0.2549999952316284 0.603600025177002 -0.7554000020027161
          0.1412000060081482 0.4440999925136566 -0.8848000168800354 0.02979999966919422 0.33489999175071716 -0.9417999982833862
          0.7200000286102295 0.20469999313354492 0.663100004196167 0.6855999827384949 -0.2962000072002411 0.6650000214576721
          0.5516999959945679 0.8087999820709229 0.20360000431537628 -0.26109999418258667 -0.25949999690055847 0.9297999739646912
          -0.7278000116348267 -0.09549999982118607 0.679099977016449 -0.8720999956130981 0.335999995470047 0.35580000281333923
          -0.1956000030040741 -0.4207000136375427 0.8859000205993652 0.4345000088214874 -0.3625999987125397 0.824400007724762
          0.517799973487854 0.8547999858856201 0.0340999998152256 0.36890000104904175 0.8431000113487244 -0.3912999927997589
          0.21400000154972076 0.9696999788284302 -0.11789999902248383 -0.179299995303154 -0.01489999983459711 0.9836999773979187
          0.20170000195503235 0.6898999810218811 -0.6952999830245972 0.14309999346733093 0.7847999930381775 -0.6029999852180481
          -0.05719999969005585 0.2833000123500824 -0.9573000073432922 0.0406000018119812 0.24310000240802765 -0.9692000150680542
          0.19089999794960022 0.2574000060558319 -0.9473000168800354 0.13950000703334808 0.26840001344680786 -0.9531999826431274
          0.05530000105500221 0.5123000144958496 -0.8569999933242798 0.8633000254631042 0.40779998898506165 -0.2973000109195709
          0.8424000144004822 0.13660000264644623 0.5213000178337097 0.9050999879837036 -0.1736000031232834 -0.3880999982357025
          0.5194000005722046 0.8514000177383423 -0.07270000129938126 0.29589998722076416 0.29829999804496765 -0.9074000120162964
          0.7598999738693237 -0.10840000212192535 0.6409000158309937 0.5759999752044678 -0.43880000710487366 0.6897000074386597
          0.4050999879837036 0.8985000252723694 0.1688999980688095 0.7480999827384949 0.6256999969482422 0.2207999974489212
          0.19110000133514404 0.9815000295639038 0.010900000110268593 0.38850000500679016 -0.6011000275611877 0.6983000040054321
          0.20419999957084656 -0.4797999858856201 0.8532999753952026 -0.045099999755620956 0.9674000144004822 -0.24899999797344208
          -0.03220000118017197 0.4862000048160553 0.8733000159263611 0.03060000017285347 0.3472999930381775 0.9372000098228455
          -0.1914999932050705 0.8201000094413757 0.5393000245094299 0.1420000046491623 -0.23420000076293945 0.9617999792098999
          -0.04520000144839287 0.6672999858856201 -0.743399977684021 -0.15399999916553497 0.7955999970436096 -0.5860000252723694
          0.003800000064074993 0.22679999470710754 -0.9739000201225281 0.1762000024318695 0.19580000638961792 -0.9646999835968018
          0.15639999508857727 0.2989000082015991 -0.9413999915122986 0.024000000208616257 0.5170000195503235 -0.8557000160217285
          -0.14720000326633453 0.15850000083446503 -0.9763000011444092 0.007499999832361937 0.14190000295639038 -0.9898999929428101
          -0.15839999914169312 0.08259999752044678 -0.9839000105857849 0.8974000215530396 -0.44119998812675476 -0.006399999838322401
          0.6416000127792358 -0.27459999918937683 0.7161999940872192 0.535099983215332 -0.8440999984741211 -0.03530000150203705
          0.6362000107765198 0.3440999984741211 0.690500020980835 0.6919000148773193 0.7210000157356262 -0.03909999877214432
          0.38839998841285706 -0.4214000105857849 -0.8195000290870667 0.5052000284194946 0.18529999256134033 -0.8428999781608582
          0.9983000159263611 0.03620000183582306 0.045899998396635056 0.7638999819755554 0.6448000073432922 -0.02630000002682209
          0.7627000212669373 0.6305999755859375 0.14350000023841858 0.30730000138282776 0.9513999819755554 0.022199999541044235
          0.9509000182151794 -0.18000000715255737 0.2517000138759613 0.535099983215332 -0.6448000073432922 0.545799970626831
          0.33469998836517334 -0.6680999994277954 0.6646000146865845 0.31859999895095825 -0.5264000296592712 0.7882999777793884
          -0.16769999265670776 0.9417999982833862 -0.29120001196861267 0.11079999804496765 0.352400004863739 0.9293000102043152
          0.28999999165534973 -0.22339999675750732 0.9305999875068665 -0.13920000195503235 0.7361999750137329 -0.6621999740600586
          0.07850000262260437 0.43959999084472656 -0.8946999907493591 0.014800000004470348 0.5892000198364258 -0.8077999949455261
          -0.04470000043511391 0.018400000408291817 -0.9987999796867371 -0.23109999299049377 -0.03799999877810478 -0.9721999764442444
          0.07329999655485153 0.10019999742507935 -0.9922999739646912 0.06599999964237213 0.289900004863739 -0.954800009727478
          0.5770999789237976 -0.7529000043869019 0.3163999915122986 0.7621999979019165 0.006000000052154064 0.6474000215530396
          0.7639999985694885 0.6381000280380249 -0.0957999974489212 0.8539000153541565 0.4546999931335449 0.2533999979496002
          0.30979999899864197 0.9508000016212463 -0.006399999838322401 0.612500011920929 0.7351999878883362 0.29030001163482666
          0.32179999351501465 -0.7013999819755554 -0.6359999775886536 0.9391999840736389 -0.1242000013589859 -0.32010000944137573
          0.642300009727478 -0.7311000227928162 -0.22990000247955322 -0.023099999874830246 0.9995999932289124 0.017999999225139618
          0.2806999981403351 -0.8719000220298767 0.40130001306533813 -0.020800000056624413 0.9995999932289124 -0.016899999231100082
          -0.5601999759674072 0.8251000046730042 0.07320000231266022 -0.5231999754905701 0.8406000137329102 0.1404999941587448
          -0.2621000111103058 0.8467000126838684 0.4629000127315521 0.28999999165534973 -0.6711999773979187 0.6820999979972839
          0.3497999906539917 -0.5135999917984009 0.7835000157356262 -0.17059999704360962 0.9635999798774719 -0.20600000023841858
          0.20010000467300415 0.4510999917984009 0.8697999715805054 0.3955000042915344 -0.1606999933719635 0.9042999744415283
          -0.1501999944448471 0.8690000176429749 -0.4713999927043915 0.0034000000450760126 0.49309998750686646 -0.8700000047683716
          -0.06199999898672104 0.6642000079154968 -0.7450000047683716 -0.5460000038146973 -0.1582999974489212 -0.822700023651123
          -0.3799000084400177 -0.1664000004529953 -0.9100000262260437 -0.6916000247001648 -0.37229999899864197 -0.6189000010490417
          -0.1753000020980835 -0.14869999885559082 -0.9732000231742859 -0.07959999889135361 0.015200000256299973 -0.9966999888420105
          -0.11079999804496765 0.20759999752044678 -0.9718999862670898 -0.08009999990463257 0.45089998841285706 -0.8889999985694885
          0.616599977016449 0.30489999055862427 0.7258999943733215 0.7355999946594238 -0.08969999849796295 0.6714000105857849
          0.20980000495910645 0.9296000003814697 0.30300000309944153 0.5184999704360962 -0.49050000309944153 0.7003999948501587
          0.41769999265670776 -0.9085999727249146 0.003599999938160181 0.6251999735832214 -0.30820000171661377 0.7171000242233276
          -0.12800000607967377 0.991599977016449 -0.019600000232458115 0.19280000030994415 -0.8500000238418579 -0.4902999997138977
          0.12849999964237213 -0.9557999968528748 -0.2644999921321869 -0.23340000212192535 0.9690999984741211 0.0794999971985817
          0.25769999623298645 -0.9028000235557556 0.3443000018596649 -0.1031000018119812 0.9934999942779541 0.04809999838471413
          -0.492000013589859 0.8398000001907349 0.22949999570846558 -0.19750000536441803 0.8210999965667725 0.5354999899864197
          0.3499000072479248 -0.6377000212669373 0.6862000226974487 0.37139999866485596 -0.45329999923706055 0.8102999925613403
          -0.26260000467300415 0.9437000155448914 -0.2013999968767166 0.26739999651908875 0.438400000333786 0.8580999970436096
          0.4392000138759613 -0.08250000327825546 0.894599974155426 -0.06310000270605087 0.6535999774932861 -0.7541999816894531
          0.11720000207424164 0.7996000051498413 -0.5889000296592712 -0.723800003528595 -0.5728999972343445 -0.38449999690055847
          -0.39010000228881836 -0.5879999995231628 -0.7085000276565552 -0.38830000162124634 -0.41449999809265137 -0.8230999708175659
          -0.20960000157356262 -0.013399999588727951 -0.9776999950408936 -0.2102999985218048 0.15299999713897705 -0.9656000137329102
          -0.10899999737739563 0.42559999227523804 -0.8982999920845032 0.4056999981403351 0.23409999907016754 0.8834999799728394
          0.4438999891281128 -0.3028999865055084 0.8432999849319458 0.026000000536441803 0.9546999931335449 0.2964000105857849
          0.22830000519752502 -0.5385000109672546 0.8111000061035156 0.16859999299049377 -0.9645000100135803 0.20329999923706055
          0.31209999322891235 -0.4675999879837036 0.8270000219345093 -0.38989999890327454 0.9192000031471252 -0.054999999701976776
          -0.08780000358819962 -0.8823999762535095 -0.46230000257492065 0.028300000354647636 -0.9731000065803528 -0.22859999537467957
          -0.35089999437332153 0.9221000075340271 0.16329999268054962 0.4032000005245209 -0.8515999913215637 0.33489999175071716
          -0.16089999675750732 0.9797000288963318 0.11919999867677689 -0.42969998717308044 0.8525000214576721 0.2976999878883362
          -0.1137000024318695 0.7947999835014343 0.5960999727249146 0.5360999703407288 -0.5422999858856201 0.6468999981880188
          0.4699999988079071 -0.3650999963283539 0.803600013256073 -0.335999995470047 0.9147999882698059 -0.22429999709129333
          0.3086000084877014 0.40779998898506165 0.8593999743461609 0.4724999964237213 -0.01940000057220459 0.8810999989509583
          -0.2687999904155731 0.9125000238418579 -0.3082999885082245 -0.1451999992132187 0.8166000247001648 -0.5586000084877014
          -0.2531999945640564 -0.4652999937534332 -0.8482000231742859 -0.2662999927997589 -0.24940000474452972 -0.9311000108718872
          -0.3140000104904175 -0.09200000017881393 -0.9449999928474426 -0.35260000824928284 0.07440000027418137 -0.9327999949455261
          -0.3418000042438507 0.2395000010728836 -0.9088000059127808 -0.22220000624656677 0.5626000165939331 -0.7962999939918518
          0.29179999232292175 0.186599999666214 0.9380999803543091 -0.01860000006854534 -0.5773000121116638 0.8162999749183655
          -0.2962000072002411 0.9122999906539917 0.28290000557899475 -0.3384000062942505 -0.5640000104904175 0.7531999945640564
          -0.19550000131130219 -0.9010999798774719 0.3869999945163727 -0.20600000023841858 -0.5378000140190125 0.8174999952316284
          -0.734499990940094 0.6761000156402588 0.05849999934434891 -0.2994999885559082 -0.9057000279426575 -0.30000001192092896
          -0.08389999717473984 -0.9961000084877014 0.0284000001847744 -0.41620001196861267 0.8137000203132629 0.4058000147342682
          0.5256999731063843 -0.7422000169754028 0.4156000018119812 -0.2928999960422516 0.9508000016212463 0.1006999984383583
          -0.3479999899864197 0.7910000085830688 0.5031999945640564 0.03750000149011612 0.7595999836921692 0.6492999792098999
          0.6542999744415283 -0.39989998936653137 0.6419000029563904 0.5785999894142151 -0.26759999990463257 0.7705000042915344
          -0.5091000199317932 0.8464000225067139 -0.15629999339580536 0.3330000042915344 0.35280001163482666 0.8744000196456909
          0.4869000017642975 0.009499999694526196 0.8733999729156494 -0.4512999951839447 0.8693000078201294 -0.20180000364780426
          -0.5763999819755554 0.699400007724762 -0.4226999878883362 -0.23309999704360962 -0.6414999961853027 -0.73089998960495
          -0.3440999984741211 -0.24940000474452972 -0.9052000045776367 -0.4352000057697296 -0.09939999878406525 -0.8948000073432922
          -0.522599995136261 0.002899999963119626 -0.8525999784469604 -0.7150999903678894 0.10890000313520432 -0.690500020980835
          -0.7317000031471252 0.26190000772476196 -0.6292999982833862 -0.1597999930381775 0.21359999477863312 0.9638000130653381
          -0.1509000062942505 -0.7530999779701233 0.6403999924659729 -0.833299994468689 0.5213000178337097 0.18389999866485596
          -0.6031000018119812 -0.7615000009536743 0.23749999701976776 -0.6680999994277954 -0.45590001344680786 0.5879999995231628
          -0.850600004196167 -0.491100013256073 0.18799999356269836 -0.9804999828338623 0.006399999838322401 0.19619999825954437
          -0.5321000218391418 -0.6004999876022339 0.5968999862670898 0.1454000025987625 -0.8611000180244446 0.48730000853538513
          -0.7034000158309937 0.1873999983072281 0.685699999332428 -0.36649999022483826 -0.16369999945163727 0.9158999919891357
          -0.21320000290870667 0.491100013256073 0.8446000218391418 -0.4115000069141388 0.8849999904632568 0.21770000457763672
          -0.1956000030040741 0.09019999951124191 0.9764999747276306 0.2184000015258789 0.6183000206947327 0.7549999952316284
          0.6586999893188477 -0.19609999656677246 0.7264000177383423 -0.6527000069618225 0.7490000128746033 -0.11400000005960464
          0.4490000009536743 0.412200003862381 0.7926999926567078 0.5728999972343445 0.09030000120401382 0.8145999908447266
          -0.7084000110626221 0.6775000095367432 -0.19779999554157257 -0.9038000106811523 0.09700000286102295 -0.41690000891685486
          -0.8687999844551086 0.3231000006198883 -0.3752000033855438 -0.8967000246047974 0.273499995470047 -0.3479999899864197
          -0.8101999759674072 0.22470000386238098 -0.5412999987602234 -0.24869999289512634 -0.7282999753952026 -0.6384999752044678
          -0.27070000767707825 -0.5357000231742859 -0.7997999787330627 -0.38839998841285706 -0.28209999203681946 -0.8773000240325928
          -0.5023999810218811 -0.07339999824762344 -0.8615000247955322 -0.6625000238418579 0.094200000166893 -0.7430999875068665
          -0.8274999856948853 -0.2513999938964844 0.5020999908447266 0.01510000042617321 -0.44209998846054077 0.8968999981880188
          0.5151000022888184 -0.6128000020980835 0.5993000268936157 -0.4927999973297119 0.8601999878883362 0.131400004029274
          0.0044999998062849045 -0.3116999864578247 0.9502000212669373 -0.33340001106262207 -0.38929998874664307 0.8586999773979187
          -0.23000000417232513 -0.6732000112533569 0.7027999758720398 0.6456000208854675 0.2728999853134155 0.7132999897003174
          0.47450000047683716 0.19480000436306 0.8583999872207642 0.7501999735832214 -0.04769999906420708 0.659500002861023
          0.7142000198364258 -0.025599999353289604 0.6995000243186951 0.5378999710083008 -0.3741999864578247 0.7554000020027161
          -0.6866999864578247 0.708899974822998 -0.16110000014305115 -0.6488999724388123 0.7605000138282776 -0.023499999195337296
          -0.7386999726295471 0.6484000086784363 -0.1842000037431717 -0.6585999727249146 0.32249999046325684 -0.6798999905586243
          -0.6898000240325928 0.35740000009536743 -0.6295999884605408 -0.7864000201225281 0.4219000041484833 -0.4510999917984009
          -0.14329999685287476 -0.8575999736785889 -0.49399998784065247 -0.34119999408721924 -0.5799999833106995 -0.739799976348877
          -0.48089998960494995 -0.301800012588501 -0.823199987411499 -0.54830002784729 -0.08500000089406967 -0.8319000005722046
          -0.6158000230789185 0.16369999945163727 -0.7706999778747559 0.20640000700950623 -0.20340000092983246 0.957099974155426
          0.4235999882221222 -0.5480999946594238 0.7211999893188477 -0.4643999934196472 0.8632000088691711 0.1981000006198883
          0.06549999862909317 -0.7405999898910522 0.6687999963760376 0.18060000240802765 -0.42570000886917114 0.8866999745368958
          0.42309999465942383 -0.09740000218153 0.9007999897003174 0.5658000111579895 -0.056299999356269836 0.8226000070571899
          -0.6887000203132629 0.6854000091552734 -0.23649999499320984 -0.03720000013709068 -0.9412000179290771 0.3357999920845032
          -0.7383999824523926 0.6581000089645386 -0.1469999998807907 -0.7757999897003174 0.589900016784668 -0.2240000069141388
          -0.11919999867677689 -0.955299973487854 -0.2703999876976013 -0.704800009727478 0.3098999857902527 -0.6381000280380249
          -0.7204999923706055 0.39239999651908875 -0.5717999935150146 -0.3903000056743622 -0.5703999996185303 -0.7226999998092651
          -0.5911999940872192 -0.32899999618530273 -0.7364000082015991 -0.6761000156402588 -0.13230000436306 -0.7247999906539917
          -0.6973000168800354 0.09449999779462814 -0.7105000019073486 0.17159999907016754 -0.18880000710487366 0.9668999910354614
          0.3240000009536743 -0.5091000199317932 0.7973999977111816 -0.11050000041723251 0.45239999890327454 0.8848999738693237
          -0.5202999711036682 0.8273000121116638 0.21160000562667847 0.3828999996185303 -0.21950000524520874 0.8973000049591064
          0.035599999129772186 -0.590499997138977 0.8062999844551086 0.41350001096725464 -0.08560000360012054 0.906499981880188
          0.328000009059906 -0.3479999899864197 0.8781999945640564 -0.785099983215332 0.6018000245094299 -0.14669999480247498
          -0.7437999844551086 0.5855000019073486 -0.322299987077713 -0.23409999907016754 -0.7829999923706055 0.576200008392334
          -0.23280000686645508 -0.8878999948501587 0.3968000113964081 -0.7896000146865845 0.5408999919891357 -0.2897000014781952
          -0.43320000171661377 -0.901199996471405 -0.012299999594688416 -0.7702999711036682 0.08799999952316284 -0.631600022315979
          -0.7713000178337097 0.3212999999523163 -0.5493999719619751 -0.5328999757766724 -0.6187999844551086 -0.5771999955177307
          -0.7419999837875366 -0.35839998722076416 -0.5665000081062317 -0.7993000149726868 -0.22750000655651093 -0.5561000108718872
          0.043299999088048935 -0.2757999897003174 0.9602000117301941 -0.07760000228881836 -0.6315000057220459 0.7714999914169312
          -0.34529998898506165 0.35499998927116394 0.8687000274658203 -0.7235999703407288 0.6304000020027161 0.28119999170303345
          0.30320000648498535 -0.31700000166893005 0.8986999988555908 0.10649999976158142 -0.7569000124931335 0.6449000239372253
          0.2687000036239624 -0.043699998408555984 0.9621999859809875 -0.04960000142455101 -0.24040000140666962 0.9693999886512756
          -0.9247000217437744 0.375900000333786 -0.060100000351667404 -0.8833000063896179 0.4131999909877777 -0.2214999943971634
          -0.6463000178337097 -0.7078999876976013 0.2849000096321106 -0.45899999141693115 -0.8654000163078308 0.20110000669956207
          -0.8792999982833862 0.4262000024318695 -0.2126999944448471 -0.840499997138977 -0.5343000292778015 -0.08950000256299973
          -0.7347999811172485 -0.629800021648407 -0.2517000138759613 -0.8718000054359436 -0.4178999960422516 -0.25540000200271606
          -0.8288999795913696 -0.32429999113082886 -0.45590001344680786 -0.8464999794960022 -0.20399999618530273 -0.4916999936103821
          -0.8598999977111816 -0.00800000037997961 -0.5102999806404114 -0.8137999773025513 0.04650000110268593 -0.579200029373169
          -0.8996000289916992 0.2621999979019165 -0.34929999709129333 -0.3926999866962433 -0.07739999890327454 0.9164000153541565
          -0.3538999855518341 -0.7908999919891357 0.499099999666214 -0.9211999773979187 0.26649999618530273 0.28349998593330383
          0.1454000025987625 -0.39320001006126404 0.9078999757766724 -0.05550000071525574 -0.8952000141143799 0.4422000050544739
          0.13120000064373016 -0.04100000113248825 0.9904999732971191 -0.3449000120162964 0.057500001043081284 0.9369000196456909
          -0.9266999959945679 -0.13660000264644623 0.35019999742507935 -0.9702000021934509 -0.23749999701976776 -0.048500001430511475
          -0.9110000133514404 0.14149999618530273 0.3874000012874603 -0.6915000081062317 -0.718500018119812 -0.07400000095367432
          -0.9496999979019165 0.3066999912261963 0.06289999932050705 -0.9854000210762024 0.16779999434947968 -0.028599999845027924
          -0.6571000218391418 -0.7245000004768372 -0.20810000598430634 -0.8557000160217285 -0.4212000072002411 -0.30059999227523804
          -0.9347000122070312 -0.11860000342130661 -0.33500000834465027 -0.7975000143051147 -0.29600000381469727 0.5257999897003174
          -0.35519999265670776 -0.545799970626831 0.758899986743927 -0.2572999894618988 -0.8826000094413757 0.39340001344680786
          -0.1679999977350235 0.07090000063180923 0.9832000136375427 -0.8608999848365784 0.09260000288486481 0.5002999901771545
          -0.906499981880188 0.1501999944448471 0.3944999873638153 -0.7232000231742859 -0.6891000270843506 0.04569999873638153
          -0.9126999974250793 -0.3407000005245209 -0.2257000058889389 -0.9538000226020813 -0.29280000925064087 -0.06780000030994415
          -0.9939000010490417 -0.0689999982714653 0.08609999716281891 -0.7414000034332275 -0.06620000302791595 0.6678000092506409
          -0.9104999899864197 -0.41100001335144043 0.04580000042915344
          <InformationKey name="L2_NORM_RANGE" location="vtkDataArray" length="2">
            <Value index="0">
              0.99993013316
            </Value>
            <Value index="1">
              1.0000679576
            </Value>
          </InformationKey>
        </DataArray>
      </PointData>
      <CellData>
        <DataArray type="Int32" Name="MaterialIds" format="ascii" RangeMin="0" RangeMax="0">
          0 0 0 0 0 0
          0 0 0 0 0 0
          0 0 0 0 0 0
          0 0 0 0 0 0
          0 0 0 0 0 0
          0 0 0 0 0 0
          0 0 0 0 0 0
          0 0 0 0 0 0
          0 0 0 0 0 0
          0 0 0 0 0 0
          0 0 0 0 0 0
          0 0 0 0 0 0
          0 0 0 0 0 0
          0 0 0 0 0 0
          0 0 0 0 0 0
          0 0 0 0 0 0
          0 0 0 0 0 0
          0 0 0 0 0 0
          0 0 0 0 0 0
          0 0 0 0 0 0
          0 0 0 0 0 0
          0 0 0 0 0 0
          0 0 0 0 0 0
          0 0 0 0 0 0
          0 0 0 0 0 0
          0 0 0 0 0 0
          0 0 0 0 0 0
          0 0 0 0 0 0
          0 0 0 0 0 0
          0 0 0 0 0 0
          0 0 0 0 0 0
          0 0 0 0 0 0
          0 0 0 0 0 0
          0 0 0 0 0 0
          0 0 0 0 0 0
          0 0 0 0 0 0
          0 0 0 0 0 0
          0 0 0 0 0 0
          0 0 0 0 0 0
          0 0 0 0 0 0
          0 0 0 0 0 0
          0 0 0 0 0 0
          0 0 0 0 0 0
          0 0 0 0 0 0
          0 0 0 0 0 0
          0 0 0 0 0 0
          0 0 0 0 0 0
          0 0 0 0 0 0
          0 0 0 0 0 0
          0 0 0 0 0 0
          0 0 0 0 0 0
          0 0 0 0 0 0
          0 0 0 0 0 0
          0 0 0 0 0 0
          0 0 0 0 0 0
          0 0 0 0 0 0
          0 0 0 0 0 0
          0 0 0 0 0 0
          0 0 0 0 0 0
          0 0 0 0 0 0
          0 0 0 0 0 0
          0 0 0 0 0 0
          0 0 0 0 0 0
          0 0 0 0 0 0
          0 0 0 0 0 0
          0 0 0 0 0 0
          0 0 0 0 0 0
          0 0 0 0 0 0
          0 0 0 0 0 0
          0 0 0 0 0 0
          0 0 0 0 0 0
          0 0 0 0 0 0
          0 0 0 0 0 0
          0 0 0 0 0 0
          0 0 0 0 0 0
          0 0 0 0 0 0
          0 0 0 0 0 0
          0 0 0 0 0 0
          0 0 0 0 0 0
          0 0 0 0 0 0
          0 0 0 0 0 0
          0 0 0 0 0 0
          0 0 0 0 0 0
          0 0 0 0 0 0
          0 0 0 0 0 0
          0 0 0 0 0 0
          0 0 0 0 0 0
          0 0 0 0 0 0
          0 0 0 0 0 0
          0 0 0 0 0 0
          0 0 0 0 0 0
          0 0 0 0 0 0
          0 0 0 0 0 0
          0 0 0 0 0 0
          0 0 0 0 0 0
          0 0 0 0 0 0
          0 0 0 0 0 0
          0 0 0 0 0 0
          0 0 0 0 0 0
          0 0 0 0 0 0
          0 0 0 0 0 0
          0 0 0 0 0 0
          0 0 0 0 0 0
          0 0 0 0 0 0
          0 0 0 0 0 0
          0 0 0 0 0 0
          0 0 0 0 0 0
          0 0 0 0 0 0
          0 0 0 0 0 0
        </DataArray>
        <DataArray type="Float32" Name="GroupIds" format="ascii" RangeMin="0" RangeMax="0">
          0 0 0 0 0 0
          0 0 0 0 0 0
          0 0 0 0 0 0
          0 0 0 0 0 0
          0 0 0 0 0 0
          0 0 0 0 0 0
          0 0 0 0 0 0
          0 0 0 0 0 0
          0 0 0 0 0 0
          0 0 0 0 0 0
          0 0 0 0 0 0
          0 0 0 0 0 0
          0 0 0 0 0 0
          0 0 0 0 0 0
          0 0 0 0 0 0
          0 0 0 0 0 0
          0 0 0 0 0 0
          0 0 0 0 0 0
          0 0 0 0 0 0
          0 0 0 0 0 0
          0 0 0 0 0 0
          0 0 0 0 0 0
          0 0 0 0 0 0
          0 0 0 0 0 0
          0 0 0 0 0 0
          0 0 0 0 0 0
          0 0 0 0 0 0
          0 0 0 0 0 0
          0 0 0 0 0 0
          0 0 0 0 0 0
          0 0 0 0 0 0
          0 0 0 0 0 0
          0 0 0 0 0 0
          0 0 0 0 0 0
          0 0 0 0 0 0
          0 0 0 0 0 0
          0 0 0 0 0 0
          0 0 0 0 0 0
          0 0 0 0 0 0
          0 0 0 0 0 0
          0 0 0 0 0 0
          0 0 0 0 0 0
          0 0 0 0 0 0
          0 0 0 0 0 0
          0 0 0 0 0 0
          0 0 0 0 0 0
          0 0 0 0 0 0
          0 0 0 0 0 0
          0 0 0 0 0 0
          0 0 0 0 0 0
          0 0 0 0 0 0
          0 0 0 0 0 0
          0 0 0 0 0 0
          0 0 0 0 0 0
          0 0 0 0 0 0
          0 0 0 0 0 0
          0 0 0 0 0 0
          0 0 0 0 0 0
          0 0 0 0 0 0
          0 0 0 0 0 0
          0 0 0 0 0 0
          0 0 0 0 0 0
          0 0 0 0 0 0
          0 0 0 0 0 0
          0 0 0 0 0 0
          0 0 0 0 0 0
          0 0 0 0 0 0
          0 0 0 0 0 0
          0 0 0 0 0 0
          0 0 0 0 0 0
          0 0 0 0 0 0
          0 0 0 0 0 0
          0 0 0 0 0 0
          0 0 0 0 0 0
          0 0 0 0 0 0
          0 0 0 0 0 0
          0 0 0 0 0 0
          0 0 0 0 0 0
          0 0 0 0 0 0
          0 0 0 0 0 0
          0 0 0 0 0 0
          0 0 0 0 0 0
          0 0 0 0 0 0
          0 0 0 0 0 0
          0 0 0 0 0 0
          0 0 0 0 0 0
          0 0 0 0 0 0
          0 0 0 0 0 0
          0 0 0 0 0 0
          0 0 0 0 0 0
          0 0 0 0 0 0
          0 0 0 0 0 0
          0 0 0 0 0 0
          0 0 0 0 0 0
          0 0 0 0 0 0
          0 0 0 0 0 0
          0 0 0 0 0 0
          0 0 0 0 0 0
          0 0 0 0 0 0
          0 0 0 0 0 0
          0 0 0 0 0 0
          0 0 0 0 0 0
          0 0 0 0 0 0
          0 0 0 0 0 0
          0 0 0 0 0 0
          0 0 0 0 0 0
          0 0 0 0 0 0
          0 0 0 0 0 0
          0 0 0 0 0 0
        </DataArray>
      </CellData>
      <Points>
        <DataArray type="Float32" Name="Points" NumberOfComponents="3" format="ascii" RangeMin="16.94147947129352" RangeMax="21.945586128103958">
          17.51129913330078 11.255200386047363 -6.225399971008301 17.622299194335938 11.27649974822998 -6.625999927520752
          17.277999877929688 11.277400016784668 -6.624300003051758 17.57740020751953 11.063199996948242 -6.95419979095459
          17.24449920654297 10.878600120544434 -7.1890997886657715 16.901399612426758 11.4306001663208 -7.190899848937988
          16.87310028076172 11.547599792480469 -7.249000072479248 16.91900062561035 11.559700012207031 -7.133800029754639
          16.792400360107422 11.665900230407715 -7.152599811553955 16.60070037841797 11.508999824523926 -7.308800220489502
          16.918699264526367 12.162400245666504 -6.2083001136779785 16.873899459838867 12.132499694824219 -5.900300025939941
          16.92959976196289 11.882699966430664 -6.117800235748291 16.75659942626953 12.326800346374512 -6.0040998458862305
          17.354400634765625 11.118200302124023 -6.0594000816345215 17.080699920654297 10.986499786376953 -6.148799896240234
          17.328699111938477 10.926899909973145 -5.804599761962891 16.976200103759766 11.482099533081055 -6.30649995803833
          16.935199737548828 11.586400032043457 -6.726399898529053 16.7893009185791 12.114500045776367 -6.597799777984619
          16.525400161743164 12.404500007629395 -6.482100009918213 16.88450050354004 10.988200187683105 -7.287799835205078
          16.58300018310547 12.028200149536133 -6.8993000984191895 16.42449951171875 11.923100471496582 -7.122700214385986