<?xml version="1.0"?>
<VTKFile type="PolyData" version="0.1" byte_order="LittleEndian" header_type="UInt32" compressor="vtkZLibDataCompressor">
  <PolyData>
    <FieldData>
      <Array type="String" Name="MaterialNames" NumberOfTuples="1" format="ascii">
        109 97 116 101 114 105 97 108 95 48 0
      </Array>
      <Array type="String" Name="MaterialLibraries" NumberOfTuples="1" format="ascii">
        109 97 116 101 114 105 97 108 46 109 116 108 0
      </Array>
    </FieldData>
    <Piece NumberOfPoints="451" NumberOfVerts="0" NumberOfLines="0" NumberOfStrips="0" NumberOfPolys="898">
      <PointData Normals="Normals">
        <DataArray type="Float32" Name="Normals" NumberOfComponents="3" format="ascii" RangeMin="0.9999360423441671" RangeMax="1.0000664273982696">
          -0.7314000129699707 -0.48969998955726624 -0.4745999872684479 -0.6644999980926514 -0.3440999984741211 -0.6633999943733215
          -0.49459999799728394 -0.7581999897956848 -0.42489999532699585 -0.8098999857902527 -0.21529999375343323 -0.5455999970436096
          -0.6751000285148621 -0.6772000193595886 -0.29269999265670776 -0.7002000212669373 -0.3100000023841858 -0.6431000232696533
          -0.5476999878883362 -0.6704000234603882 -0.5005999803543091 -0.774399995803833 -0.4189000129699707 -0.4742000102996826
          -0.7850000262260437 0.186599999666214 -0.5906999707221985 -0.44119998812675476 -0.8521999716758728 -0.28119999170303345
          -0.8769000172615051 0.27160000801086426 -0.39660000801086426 -0.9107999801635742 -0.39910000562667847 -0.1054999977350235
          -0.782800018787384 -0.6205000281333923 0.04729999974370003 -0.4228000044822693 -0.4449000060558319 -0.7894999980926514
          -0.15389999747276306 -0.30959999561309814 -0.9383000135421753 -0.19349999725818634 -0.7156999707221985 -0.6711000204086304
          -0.49239999055862427 -0.7178999781608582 -0.4921000003814697 -0.3292999863624573 -0.8781999945640564 -0.34689998626708984
          -0.5450000166893005 -0.07660000026226044 -0.8349000215530396 -0.6233999729156494 0.3095000088214874 -0.7179999947547913
          -0.498199999332428 -0.8098000288009644 -0.3098999857902527 -0.3955000042915344 -0.90420001745224 -0.16099999845027924
          -0.7605000138282776 -0.1784999966621399 -0.6243000030517578 -0.7174000144004822 0.2004999965429306 -0.6672000288963318
          -0.7044000029563904 0.438400000333786 -0.5582000017166138 -0.3978999853134155 -0.9143999814987183 -0.07509999722242355
          -0.5766000151634216 -0.7239000201225281 -0.3788999915122986 -0.6875 0.6022999882698059 -0.4056999981403351
          -0.41190001368522644 -0.882099986076355 -0.22840000689029694 -0.1949000060558319 -0.9805999994277954 -0.022299999371170998
          -0.7049999833106995 0.6661999821662903 -0.24310000240802765 -0.3091999888420105 -0.9462000131607056 -0.09589999914169312
          -0.3197000026702881 -0.9449999928474426 -0.06830000132322311 -0.7361000180244446 -0.6761000156402588 0.031300000846385956
          0.009600000455975533 -0.7630000114440918 -0.6463000178337097 0.16500000655651093 -0.4546999931335449 -0.8751999735832214
          0.13179999589920044 0.04470000043511391 -0.9902999997138977 -0.40310001373291016 0.1858000010251999 -0.8960999846458435
          -0.12120000272989273 0.3109999895095825 -0.9426000118255615 -0.2874999940395355 0.6075000166893005 -0.7404999732971191
          -0.05920000001788139 -0.9397000074386597 -0.3368000090122223 -0.1932000070810318 -0.8999999761581421 -0.39070001244544983
          -0.3763999938964844 0.7700999975204468 -0.5151000022888184 -0.2912999987602234 -0.9435999989509583 -0.15729999542236328
          -0.1973000019788742 -0.9768000245094299 -0.08389999717473984 -0.4977000057697296 0.7192000150680542 -0.4848000109195709
          -0.46209999918937683 0.8202000260353088 -0.33719998598098755 -0.295199990272522 -0.9546999931335449 0.03739999979734421
          -0.3736000061035156 -0.9243000149726868 0.07810000330209732 -0.2816999852657318 -0.9430000185966492 0.1770000010728836
          -0.5234000086784363 0.8102999925613403 -0.2635999917984009 -0.3077000081539154 -0.9413999915122986 0.13779999315738678
          -0.12020000070333481 -0.9897000193595886 0.07739999890327454 -0.5756999850273132 0.8062000274658203 -0.1362999975681305
          -0.20229999721050262 -0.9789999723434448 -0.026499999687075615 -0.08789999783039093 -0.9961000084877014 0.004399999976158142
          -0.8906999826431274 0.4542999863624573 -0.014700000174343586 -0.6288999915122986 0.7749999761581421 0.06210000067949295
          -0.2924000024795532 -0.9556000232696533 0.03739999979734421 -0.2736999988555908 -0.9617000222206116 -0.01679999940097332
          -0.6974999904632568 -0.6518999934196472 0.29760000109672546 -0.9818999767303467 -0.18070000410079956 0.05719999969005585
          -0.7541000247001648 0.13699999451637268 0.6424000263214111 -0.8752999901771545 0.4442000091075897 0.19130000472068787
          0.43549999594688416 -0.25540000200271606 -0.8632000088691711 0.27950000762939453 -0.757099986076355 -0.590399980545044
          0.33820000290870667 0.24740000069141388 -0.9079999923706055 0.11379999667406082 0.6057000160217285 -0.7875000238418579
          -0.08139999955892563 0.7946000099182129 -0.6017000079154968 0.05429999902844429 -0.9404000043869019 -0.33570000529289246
          -0.288100004196167 0.8449000120162964 -0.4507000148296356 -0.10679999738931656 -0.9940999746322632 0.020899999886751175
          -0.3752000033855438 0.8629000186920166 -0.3384999930858612 -0.4250999987125397 0.840399980545044 -0.3361000120639801
          -0.20350000262260437 -0.9685999751091003 0.14309999346733093 -0.25189998745918274 -0.9506000280380249 0.18119999766349792
          -0.5163999795913696 0.8087999820709229 -0.28139999508857727 -0.1915999948978424 -0.9742000102996826 0.11909999698400497
          -0.2750999927520752 -0.9542999863624573 0.11699999868869781 -0.5879999995231628 0.7996000051498413 -0.12219999730587006
          -0.06930000334978104 -0.9965999722480774 -0.045499999076128006 -0.6484000086784363 0.7597000002861023 0.04989999905228615
          -0.18070000410079956 -0.974399983882904 -0.13369999825954437 -0.7171000242233276 0.6209999918937683 0.3165000081062317
          -0.7117000222206116 -0.675599992275238 0.19249999523162842 -0.4268999993801117 -0.8970000147819519 0.1145000010728836
          -0.9243000149726868 -0.10360000282526016 0.3675000071525574 -0.8475000262260437 0.2556000053882599 0.4650999903678894
          -0.7563999891281128 -0.4496999979019165 0.4749999940395355 0.6269000172615051 0.009800000116229057 -0.7791000008583069
          0.5062000155448914 -0.6033999919891357 -0.6161999702453613 0.47360000014305115 0.4023999869823456 -0.7835000157356262
          0.23549999296665192 0.6574000120162964 -0.7157999873161316 -0.0071000000461936 0.8070999979972839 -0.5903000235557556
          0.13899999856948853 -0.8878999948501587 -0.438400000333786 0.48100000619888306 -0.695900022983551 -0.53329998254776
          0.20550000667572021 -0.9526000022888184 -0.22429999709129333 -0.2833000123500824 0.8306000232696533 -0.47929999232292175
          -0.03689999878406525 -0.9973000288009644 -0.0632999986410141 -0.05180000141263008 -0.9984999895095825 0.019300000742077827
          -0.4244000017642975 0.8104000091552734 -0.40389999747276306 -0.47530001401901245 0.7752000093460083 -0.41609999537467957
          -0.24250000715255737 -0.9599000215530396 0.14079999923706055 -0.2264000028371811 -0.9661999940872192 0.12319999933242798
          -0.5680000185966492 0.7616000175476074 -0.31200000643730164 -0.25099998712539673 -0.9498000144958496 0.1867000013589859
          -0.2249000072479248 -0.9702000021934509 0.09009999781847 -0.6492999792098999 0.7447999715805054 -0.15399999916553497
          -0.17839999496936798 -0.9822999835014343 -0.0575999990105629 -0.23360000550746918 -0.965399980545044 -0.11599999666213989
          -0.7005000114440918 0.7132999897003174 0.023499999195337296 -0.16120000183582306 -0.9681000113487244 -0.1915999948978424
          -0.17990000545978546 -0.9631999731063843 -0.1995999962091446 -0.7538999915122986 0.6050000190734863 0.25600001215934753
          -0.2874000072479248 -0.957099974155426 -0.03759999945759773 -0.2782000005245209 -0.9544000029563904 0.10859999805688858
          -0.8481000065803528 0.19099999964237213 0.4941999912261963 -0.8022000193595886 0.4474000036716461 0.3953000009059906
          -0.492900013923645 -0.7451000213623047 0.44929999113082886 -0.7117000222206116 -0.15839999914169312 0.6844000220298767
          0.7038999795913696 0.18369999527931213 -0.6861000061035156 0.7318000197410583 -0.27970001101493835 -0.6215000152587891
          0.5049999952316284 0.5195000171661377 -0.689300000667572 0.2556000053882599 0.6941999793052673 -0.6728000044822693
          0.3952000141143799 0.6179999709129333 -0.6797000169754028 0.7001000046730042 -0.4505999982357025 -0.5537999868392944
          0.439300000667572 -0.8503999710083008 -0.28940001130104065 0.19949999451637268 0.7378000020980835 -0.6449000239372253
          -0.16769999265670776 0.8008999824523926 -0.5748999714851379 0.1517000049352646 -0.9810000061988831 -0.12080000340938568
          -0.38749998807907104 0.7950000166893005 -0.4666999876499176 -0.4794999957084656 0.7455999851226807 -0.462799996137619
          -0.16040000319480896 -0.9850999712944031 0.061400000005960464 -0.5856999754905701 0.7422999739646912 -0.3255999982357025
          -0.24580000340938568 -0.9574999809265137 0.15070000290870667 -0.26980000734329224 -0.954200029373169 0.12960000336170197
          -0.31709998846054077 -0.9483000040054321 -0.015599999576807022 -0.6604999899864197 0.7365999817848206 -0.1454000025987625
          -0.19499999284744263 -0.9807000160217285 -0.01590000092983246 -0.18400000035762787 -0.9707000255584717 -0.15459999442100525
          -0.7017999887466431 0.7110000252723694 0.04280000180006027 -0.19779999554157257 -0.9671000242233276 -0.16009999811649323
          -0.7476999759674072 0.6191999912261963 0.23970000445842743 -0.2897999882698059 -0.941100001335144 0.17430000007152557
          -0.7652000188827515 0.311599999666214 0.5633000135421753 -0.7796000242233276 0.48010000586509705 0.40220001339912415
          -0.4837999939918518 -0.6108999848365784 0.6266999840736389 -0.6420000195503235 -0.09239999949932098 0.7612000107765198
          0.6628999710083008 0.334199994802475 -0.6700000166893005 0.7850000262260437 -0.029899999499320984 -0.6187000274658203
          0.5285000205039978 0.48739999532699585 -0.6951000094413757 0.5740000009536743 0.38999998569488525 -0.7200000286102295
          0.7351999878883362 -0.25110000371932983 -0.6295999884605408 0.5910000205039978 -0.7074999809265137 -0.3874000012874603
          0.41659998893737793 0.4828000068664551 -0.7702999711036682 0.09520000219345093 0.6703000068664551 -0.7360000014305115
          -0.18289999663829803 0.7113999724388123 -0.678600013256073 0.13249999284744263 -0.9602000117301941 -0.2459000051021576
          -0.37950000166893005 0.733299970626831 -0.5641999840736389 -0.49869999289512634 0.7046999931335449 -0.5047000050544739
          -0.22059999406337738 -0.974399983882904 -0.0430000014603138 -0.6121000051498413 0.7213000059127808 -0.32420000433921814
          -0.3156999945640564 -0.9476000070571899 0.04899999871850014 -0.3571999967098236 -0.920799970626831 -0.15649999678134918
          -0.6779999732971191 0.7232999801635742 -0.13079999387264252 -0.29760000109672546 -0.9352999925613403 -0.19130000472068787
          -0.3776000142097473 -0.8837000131607056 -0.2766000032424927 -0.7285000085830688 0.6844000220298767 0.030700000002980232
          -0.3010999858379364 -0.9217000007629395 -0.24449999630451202 -0.4074000120162964 -0.8870999813079834 -0.21690000593662262
          -0.7742999792098999 0.5935999751091003 0.21930000185966492 -0.3686999976634979 -0.9294000267982483 -0.01769999973475933
          -0.4830000102519989 -0.8725000023841858 0.07400000095367432 -0.738099992275238 0.3197999894618988 0.5940999984741211
          -0.7785999774932861 0.4636000096797943 0.4230000078678131 -0.4584999978542328 -0.7450000047683716 0.484499990940094
          -0.41659998893737793 -0.3199000060558319 0.8510000109672546 -0.5942999720573425 0.031199999153614044 0.803600013256073
          0.7239999771118164 0.1071000024676323 -0.6814000010490417 0.7013000249862671 -0.2433999925851822 -0.6700000166893005
          0.5946999788284302 -0.6211000084877014 -0.5103999972343445 0.6018000245094299 0.11460000276565552 -0.7904000282287598
          0.3619000017642975 0.33169999718666077 -0.8712000250816345 0.09809999912977219 0.5468000173568726 -0.8314999938011169
          -0.19529999792575836 0.61080002784729 -0.767300009727478 0.1889999955892563 -0.8765000104904175 -0.44269999861717224
          0.47859999537467957 -0.7077000141143799 -0.5198000073432922 0.20479999482631683 -0.9114999771118164 -0.35679998993873596
          -0.37540000677108765 0.6729999780654907 -0.6373999714851379 -0.5189999938011169 0.6686000227928162 -0.5325000286102295
          -0.17299999296665192 -0.9629999995231628 -0.20640000700950623 0.011800000444054604 -0.9745000004768372 -0.22419999539852142
          -0.661899983882904 0.6689000129699707 -0.3382999897003174 -0.32850000262260437 -0.9212999939918518 -0.2079000025987625
          -0.1354999989271164 -0.9848999977111816 -0.10819999873638153 -0.3882000148296356 -0.9111999869346619 -0.13779999315738678
          -0.75 0.6462000012397766 -0.14149999618530273 -0.3228999972343445 -0.923799991607666 -0.20550000667572021
          -0.3206000030040741 -0.9228000044822693 -0.21369999647140503 -0.38690000772476196 -0.8810999989509583 -0.2718999981880188
          -0.7714999914169312 0.6355000138282776 0.029899999499320984 -0.3474000096321106 -0.9065999984741211 -0.2395000010728836
          -0.15379999577999115 -0.982699990272522 0.10289999842643738 -0.7967000007629395 0.5630000233650208 0.21979999542236328
          -0.3880999982357025 -0.9215999841690063 0.005100000184029341 -0.061500001698732376 -0.9138000011444092 0.4016000032424927
          -0.6879000067710876 0.313400000333786 0.6546000242233276 -0.7534999847412109 0.44179999828338623 0.4869000017642975
          -0.41760000586509705 -0.7400000095367432 0.5273000001907349 -0.4700999855995178 -0.4357999861240387 0.7674999833106995
          -0.37619999051094055 -0.21089999377727509 0.9021999835968018 -0.4812000095844269 0.10740000009536743 0.8700000047683716
          0.7300000190734863 -0.12800000607967377 -0.6714000105857849 0.7121000289916992 -0.4115999937057495 -0.5687000155448914
          0.3330000042915344 0.26460000872612 -0.9049999713897705 0.03350000083446503 0.45329999923706055 -0.8906999826431274
          -0.24150000512599945 0.5371000170707703 -0.8082000017166138 0.641700029373169 -0.5317999720573425 -0.5526999831199646
          0.45590001344680786 -0.7962999939918518 -0.397599995136261 -0.3905999958515167 0.5820000171661377 -0.7131999731063843
          -0.5776000022888184 0.5792999863624573 -0.5751000046730042 0.2476000040769577 -0.9348999857902527 -0.25429999828338623
          -0.7631000280380249 0.508899986743927 -0.3984000086784363 0.20309999585151672 -0.9739000201225281 0.10159999877214432
          -0.859000027179718 0.4767000079154968 -0.1868000030517578 -0.8881000280380249 0.34279999136924744 -0.30630001425743103
          -0.06480000168085098 -0.9933000206947327 -0.09560000151395798 0.303600013256073 -0.9204999804496765 0.2460000067949295
          -0.8306000232696533 0.5561000108718872 0.027300000190734863 0.09229999780654907 -0.9854000210762024 0.14300000667572021
          0.5055999755859375 -0.7803999781608582 0.3677999973297119 -0.782800018787384 0.5460000038146973 0.2985000014305115
          0.1965000033378601 -0.8361999988555908 0.5120999813079834 0.34130001068115234 -0.7491000294685364 0.567799985408783
          -0.6032000184059143 0.2994000017642975 0.739300012588501 -0.6696000099182129 0.44339999556541443 0.5958999991416931
          -0.18950000405311584 -0.6478000283241272 0.7379000186920166 -0.3249000012874603 -0.2964000105857849 0.8981000185012817
          -0.37380000948905945 -0.06960000097751617 0.9248999953269958 -0.41769999265670776 0.11900000274181366 0.9006999731063843
          0.7971000075340271 -0.07100000232458115 -0.5996999740600586 0.7872999906539917 -0.2418999969959259 -0.5672000050544739
          0.6556000113487244 0.045899998396635056 -0.7537000179290771 0.424699991941452 0.19460000097751617 -0.8841000199317932
          0.10100000351667404 0.3474999964237213 -0.932200014591217 -0.23340000212192535 0.46459999680519104 -0.854200005531311
          -0.42260000109672546 0.492900013923645 -0.7605999708175659 0.7506999969482422 -0.3601999878883362 -0.5536999702453613
          0.6376000046730042 -0.6542999744415283 -0.4066999852657318 -0.6175000071525574 0.4320000112056732 -0.6572999954223633
          0.49129998683929443 -0.8567000031471252 -0.15680000185966492 -0.7594000101089478 0.4528000056743622 -0.46720001101493835
          0.35359999537467957 -0.8777999877929688 0.3231000006198883 -0.8485000133514404 0.47690001130104065 -0.22939999401569366
          0.4903999865055084 -0.6761999726295471 0.5497000217437744 -0.9028000235557556 0.4296000003814697 0.022700000554323196
          -0.895799994468689 0.4422999918460846 -0.04349999874830246 0.589900016784668 -0.6345999836921692 0.4993000030517578
          -0.7976999878883362 0.49559998512268066 0.34360000491142273 -0.861299991607666 0.4569999873638153 0.22179999947547913
          0.5166000127792358 -0.590399980545044 0.620199978351593 0.6305000185966492 -0.3968999981880188 0.6671000123023987
          -0.5078999996185303 0.2703999876976013 0.8179000020027161 -0.5799999833106995 0.3862999975681305 0.717199981212616
          0.02319999970495701 -0.6913999915122986 0.722100019454956 -0.2930000126361847 -0.17319999635219574 0.9402999877929688
          -0.32100000977516174 -0.0052999998442828655 0.9470999836921692 -0.39309999346733093 0.12160000205039978 0.9114000201225281
          0.820900022983551 -0.13079999387264252 -0.555899977684021 0.7253999710083008 0.009399999864399433 -0.6881999969482422
          0.5257999897003174 0.15379999577999115 -0.8366000056266785 0.22110000252723694 0.31690001487731934 -0.9222999811172485
          -0.1444000005722046 0.4352000057697296 -0.888700008392334 -0.37790000438690186 0.4632999897003174 -0.8015999794006348
          0.8636999726295471 -0.21549999713897705 -0.45559999346733093 0.8148000240325928 -0.4729999899864197 -0.3352000117301941
          -0.5246000289916992 0.45879998803138733 -0.717199981212616 -0.6589999794960022 0.41359999775886536 -0.6281999945640564
          -0.6029999852180481 0.5752000212669373 -0.5526999831199646 0.4715999960899353 -0.8363999724388123 -0.2793999910354614
          -0.6983000040054321 0.6377999782562256 -0.3249000012874603 0.17569999396800995 -0.8736000061035156 0.4537999927997589
          0.5048999786376953 -0.8610000014305115 0.061400000005960464 -0.7555999755859375 0.6518999934196472 -0.06379999965429306
          0.1826999932527542 -0.8964999914169312 0.4036000072956085 -0.7813000082969666 0.5989000201225281 0.17579999566078186
          -0.7444000244140625 0.4611000120639801 0.4828999936580658 -0.7287999987602234 0.5496000051498413 0.4083000123500824
          0.6606000065803528 -0.4366999864578247 0.6107000112533569 -0.3878999948501587 0.28859999775886536 0.8752999901771545
          -0.3133000135421753 -0.02810000069439411 0.9491999745368958 0.16830000281333923 -0.3610000014305115 0.9172000288963318
          -0.19519999623298645 0.0722000002861023 0.9781000018119812 -0.2705000042915344 0.14560000598430634 0.9516000151634216
          0.8113999962806702 -0.11069999635219574 -0.5738999843597412 0.7524999976158142 -0.015799999237060547 -0.6583999991416931
          0.6129000186920166 0.13539999723434448 -0.7785000205039978 0.3578999936580658 0.30709999799728394 -0.8817999958992004
          -0.03220000118017197 0.43950000405311584 -0.8977000117301941 -0.29600000381469727 0.5130000114440918 -0.8057000041007996
          0.9340000152587891 -0.22310000658035278 -0.2791000008583069 0.9294000267982483 -0.11169999837875366 -0.35190001130104065
          0.8862000107765198 -0.14409999549388885 -0.44029998779296875 -0.4471000134944916 0.5813999772071838 -0.6797999739646912
          -0.5449000000953674 0.6858999729156494 -0.4823000133037567 0.9728999733924866 -0.1565999984741211 -0.17020000517368317
          0.9549000263214111 -0.2939000129699707 -0.0414000004529953 -0.6324999928474426 0.7447999715805054 -0.21279999613761902
          -0.6600000262260437 0.7491000294685364 0.057100001722574234 -0.6568999886512756 0.6886000037193298 0.3070000112056732
          -0.6179999709129333 0.4952000081539154 0.6107000112533569 -0.609499990940094 0.6021999716758728 0.5156000256538391
          -0.05779999867081642 0.09239999949932098 0.9940000176429749 0.0885000005364418 -0.4284000098705292 0.8992000222206116
          -0.040699999779462814 0.2345999926328659 0.9711999893188477 -0.07289999723434448 0.17749999463558197 0.9814000129699707
          -0.08479999750852585 0.18379999697208405 0.9793000221252441 -0.26190000772476196 0.18799999356269836 0.9466000199317932
          -0.46810001134872437 0.3181000053882599 0.824400007724762 0.6463000178337097 -0.2727999985218048 0.7125999927520752
          0.8598999977111816 0.07129999995231628 -0.5055000185966492 0.8964999914169312 -0.013500000350177288 -0.44279998540878296
          0.7145000100135803 0.17159999907016754 -0.6782000064849854 0.515500009059906 0.3012999892234802 -0.8022000193595886
          0.16410000622272491 0.444599986076355 -0.8805999755859375 -0.33180001378059387 0.6897000074386597 -0.6435999870300293
          -0.13189999759197235 0.5734000205993652 -0.8086000084877014 0.9614999890327454 -0.029500000178813934 -0.27309998869895935
          0.9807000160217285 -0.07620000094175339 -0.1800999939441681 -0.4945000112056732 0.766700029373169 -0.40939998626708984
          0.9779999852180481 -0.16359999775886536 0.12960000336170197 -0.5823000073432922 0.8061000108718872 -0.10589999705553055
          -0.5975000262260437 0.7882999777793884 0.1469999998807907 -0.6008999943733215 0.7064999938011169 0.37389999628067017
          -0.43479999899864197 0.5109999775886536 0.7415000200271606 -0.41530001163482666 0.6297000050544739 0.656499981880188
          0.2687999904155731 0.0763000026345253 0.9602000117301941 0.31119999289512634 0.1768999993801117 0.9337000250816345
          -0.006500000134110451 0.1356000006198883 0.9907000064849854 -0.1590999960899353 0.08410000056028366 0.9836999773979187
          -0.20350000262260437 0.3070000112056732 0.9297000169754028 0.5340999960899353 -0.22550000250339508 0.8148000240325928
          0.9641000032424927 0.09610000252723694 -0.2476000040769577 0.9363999962806702 0.12610000371932983 -0.32749998569488525
          0.843500018119812 0.22660000622272491 -0.4869999885559082 0.694100022315979 0.3440000116825104 -0.6323999762535095
          0.4205000102519989 0.490200012922287 -0.7634999752044678 0.07729999721050262 0.6829000115394592 -0.7264000177383423
          -0.19359999895095825 0.8446000218391418 -0.4991999864578247 0.9912999868392944 0.06669999659061432 -0.11320000141859055
          0.9993000030517578 0.03550000116229057 -0.00930000003427267 -0.3880000114440918 0.8878999948501587 -0.24709999561309814
          0.9804999828338623 -0.10740000009536743 0.1648000031709671 -0.4528999924659729 0.8913999795913696 0.01489999983459711
          -0.4717999994754791 0.8496000170707703 0.23569999635219574 -0.484499990940094 0.7656000256538391 0.42309999465942383
          0.6754000186920166 -0.017899999395012856 0.7372999787330627 0.5609999895095825 0.03420000150799751 0.8270999789237976
          0.18490000069141388 0.05270000174641609 0.9814000129699707 -0.042399998754262924 0.11110000312328339 0.992900013923645
          0.9458000063896179 0.16910000145435333 -0.27709999680519104 0.9136000275611877 0.27799999713897705 -0.29670000076293945
          0.8083999752998352 0.3736000061035156 -0.45489999651908875 0.5205000042915344 0.5874999761581421 -0.619700014591217
          0.17470000684261322 0.804099977016449 -0.5681999921798706 0.3529999852180481 0.810699999332428 -0.46709999442100525
          0.9904999732971191 0.12030000239610672 0.06610000133514404 0.9890999794006348 0.1340000033378601 -0.06040000170469284
          0.9660000205039978 0.19480000436306 -0.17020000517368317 0.10639999806880951 0.9363999962806702 -0.3343000113964081
          -0.12030000239610672 0.982699990272522 -0.14090000092983246 0.9973000288009644 -0.0026000000070780516 0.07339999824762344
          0.9789000153541565 0.17329999804496765 0.10840000212192535 -0.1996999979019165 0.961899995803833 0.1867000013589859
          0.9169999957084656 -0.011800000444054604 0.39879998564720154 -0.13109999895095825 0.896399974822998 0.42340001463890076
          -0.2069000005722046 0.7795000076293945 0.5911999940872192 0.6693999767303467 -0.024700000882148743 0.7425000071525574
          0.609000027179718 -0.027899999171495438 0.7926999926567078 0.512499988079071 0.11869999766349792 0.8504999876022339
          0.5148000121116638 0.06549999862909317 0.8547999858856201 -0.1477999985218048 0.5156000256538391 0.843999981880188
          0.10610000044107437 0.4595000147819519 0.8817999958992004 0.04500000178813934 0.6096000075340271 0.7914999723434448
          -0.021299999207258224 0.6668999791145325 0.7448999881744385 0.1981000006198883 0.23010000586509705 0.9527999758720398
          0.8953999876976013 0.3716000020503998 -0.2451999932527542 0.7013999819755554 0.5447999835014343 -0.4596000015735626
          0.4893999993801117 0.8125 -0.3167000114917755 0.979200005531311 0.13349999487400055 0.1527000069618225
          0.988099992275238 0.11590000241994858 0.10130000114440918 0.9753999710083008 0.2054000049829483 -0.07989999651908875
          0.30160000920295715 0.9419999718666077 -0.14740000665187836 0.0771000012755394 0.9900000095367432 0.1185000017285347
          0.9186000227928162 0.17990000545978546 0.35179999470710754 0.9555000066757202 0.1005999967455864 0.27720001339912415
          0.06310000270605087 0.910099983215332 0.40950000286102295 0.7149999737739563 -0.07100000232458115 0.6955000162124634
          0.8367999792098999 -0.042899999767541885 0.5458999872207642 0.8798999786376953 0.1298999935388565 0.4569999873638153
          0.1453000009059906 0.8068000078201294 0.572700023651123 0.6804999709129333 -0.15070000290870667 0.7171000242233276
          0.6287000179290771 -0.11749999970197678 0.7687000036239624 0.6524999737739563 -0.15119999647140503 0.7425000071525574
          0.6747000217437744 -0.01759999990463257 0.7379000186920166 0.195700004696846 0.6413999795913696 0.7419000267982483
          0.2076999992132187 0.5925999879837036 0.7782999873161316 0.14090000092983246 0.7001000046730042 0.699999988079071
          0.1306000053882599 0.7759000062942505 0.6172000169754028 0.5008000135421753 -0.0551999993622303 0.8637999892234802
          0.3610000014305115 0.2639999985694885 0.8944000005722046 0.2547999918460846 0.37720000743865967 0.8903999924659729
          0.7315000295639038 0.6571000218391418 -0.1818999946117401 0.9785000085830688 0.1266999989748001 0.16269999742507935
          0.9599999785423279 0.26249998807907104 0.09730000048875809 0.9032999873161316 0.4230000078678131 -0.07199999690055847
          0.6881999969482422 0.722000002861023 -0.07129999995231628 0.3093000054359436 0.9460999965667725 0.0966000035405159
          0.4318000078201294 0.8676000237464905 0.24660000205039978 0.9186000227928162 0.11010000109672546 0.37959998846054077
          0.9175999760627747 0.22290000319480896 0.32910001277923584 0.15770000219345093 0.8899000287055969 0.42800000309944153
          0.2619999945163727 0.8310999870300293 0.49050000309944153 0.7699000239372253 0.1746000051498413 0.6137999892234802
          0.8084999918937683 0.23819999396800995 0.538100004196167 0.14650000631809235 0.736299991607666 0.6607000231742859
          0.2727000117301941 0.6227999925613403 0.733299970626831 0.3366999924182892 0.7315000295639038 0.5928999781608582
          0.5669000148773193 0.14509999752044678 0.8108999729156494 0.567799985408783 0.3395000100135803 0.7498999834060669
          0.40380001068115234 0.4462999999523163 0.7986000180244446 0.8565000295639038 0.45159998536109924 0.2498999983072281
          0.7203999757766724 0.6711000204086304 0.17499999701976776 0.788100004196167 0.44110000133514404 0.4291999936103821
          0.5885999798774719 0.6769000291824341 0.44200000166893005 0.6204000115394592 0.5126000046730042 0.5935999751091003
          -0.8985999822616577 0.375900000333786 -0.22630000114440918 -0.9362000226974487 0.3377000093460083 0.09730000048875809
          -0.9937999844551086 -0.04259999841451645 0.1023000031709671 0.5590000152587891 -0.5171999931335449 0.6481000185012817
          0.6279000043869019 -0.34290000796318054 0.6985999941825867 0.6208000183105469 -0.1695999950170517 0.7653999924659729
          0.45100000500679016 -0.4429999887943268 0.7748000025749207 0.7035999894142151 -0.19339999556541443 0.6837000250816345
          0.7096999883651733 -0.2809999883174896 0.6460999846458435 0.6549000144004822 -0.15080000460147858 0.7404999732971191
          0.8198000192642212 -0.352400004863739 0.4512999951839447 0.8396000266075134 -0.31310001015663147 0.4438000023365021
          0.8788999915122986 -0.08649999648332596 0.4691999852657318 0.8543999791145325 0.023499999195337296 0.51910001039505
          0.41830000281333923 -0.4214000105857849 0.8046000003814697
          <InformationKey name="L2_NORM_RANGE" location="vtkDataArray" length="2">
            <Value index="0">
              0.99993604234
            </Value>
            <Value index="1">
              1.0000664274
            </Value>