<?xml version="1.0"?>
<VTKFile type="PolyData" version="0.1" byte_order="LittleEndian" header_type="UInt32" compressor="vtkZLibDataCompressor">
  <PolyData>
    <FieldData>
      <Array type="String" Name="MaterialNames" NumberOfTuples="1" format="ascii">
        109 97 116 101 114 105 97 108 95 48 0
      </Array>
      <Array type="String" Name="MaterialLibraries" NumberOfTuples="1" format="ascii">
        109 97 116 101 114 105 97 108 46 109 116 108 0
      </Array>
    </FieldData>
    <Piece NumberOfPoints="549" NumberOfVerts="0" NumberOfLines="0" NumberOfStrips="0" NumberOfPolys="1047">
      <PointData Normals="Normals">
        <DataArray type="Float32" Name="Normals" NumberOfComponents="3" format="ascii" RangeMin="0.9999291395037845" RangeMax="1.0000694058613813">
          -0.92330002784729 0.15360000729560852 -0.35199999809265137 -0.8080999851226807 0.13289999961853027 -0.5738999843597412
          -0.8539000153541565 0.00989999994635582 -0.5202999711036682 0.9251000285148621 0.3643999993801117 -0.10679999738931656
          0.949999988079071 0.2838999927043915 0.13009999692440033 0.8600000143051147 0.3093000054359436 0.4058000147342682
          -0.9118000268936157 -0.15760000050067902 -0.3790999948978424 -0.963100016117096 -0.12680000066757202 -0.23749999701976776
          -0.9718999862670898 -0.001500000013038516 -0.2353000044822693 -0.263700008392334 0.4478999972343445 -0.8543000221252441
          -0.20229999721050262 -0.11289999634027481 -0.9728000164031982 -0.07620000094175339 0.27309998869895935 -0.9589999914169312
          -0.9269000291824341 0.27900001406669617 -0.25110000371932983 -0.9456999897956848 0.27619999647140503 -0.17139999568462372
          -0.942799985408783 0.32109999656677246 -0.09000000357627869 0.9261000156402588 0.3483000099658966 -0.14489999413490295
          0.3246999979019165 -0.6931999921798706 0.6434000134468079 0.16249999403953552 -0.49000000953674316 0.8565000295639038
          0.18060000240802765 -0.5130000114440918 0.8392000198364258 0.9264000058174133 -0.09200000017881393 0.365200012922287
          0.9697999954223633 0.03350000083446503 0.24160000681877136 0.9901999831199646 -0.07100000232458115 0.12020000070333481
          0.20190000534057617 -0.3327000141143799 0.9211999773979187 0.07349999994039536 -0.32820001244544983 0.9416999816894531
          0.3086000084877014 -0.26989999413490295 0.9121000170707703 -0.31040000915527344 0.9365000128746033 -0.1632000058889389
          0.6668999791145325 0.7440999746322632 0.04050000011920929 0.17190000414848328 0.9837999939918518 -0.05139999836683273
          -0.1632000058889389 0.35429999232292175 -0.920799970626831 -0.38350000977516174 0.3407000005245209 -0.8583999872207642
          -0.20489999651908875 0.2777999937534332 -0.9384999871253967 -0.9957000017166138 0.06719999760389328 -0.06310000270605087
          -0.9930999875068665 -0.02199999988079071 0.11490000039339066 -0.9740999937057495 -0.16060000658035278 -0.1589999943971634
          -0.7888000011444092 -0.05169999971985817 0.612500011920929 -0.7386999726295471 0.03519999980926514 0.6730999946594238
          -0.76419997215271 0.16529999673366547 0.6233999729156494 -0.4885999858379364 -0.23520000278949738 0.8402000069618225
          -0.2824000120162964 -0.19169999659061432 0.9399999976158142 -0.13660000264644623 -0.22200000286102295 0.965399980545044
          0.022099999710917473 0.11699999868869781 -0.992900013923645 -0.031199999153614044 0.15049999952316284 -0.988099992275238
          0.34850001335144043 0.1264999955892563 -0.9286999702453613 0.948199987411499 0.21870000660419464 0.2304999977350235
          0.7348999977111816 0.2273000031709671 0.6389999985694885 0.8036999702453613 0.36649999022483826 0.46880000829696655
          -0.9943000078201294 0.053599998354911804 0.0917000025510788 -0.6765000224113464 -0.6414999961853027 0.36160001158714294
          -0.7997000217437744 -0.3012999892234802 -0.5192999839782715 0.5148000121116638 -0.3276999890804291 -0.7922000288963318
          0.3813000023365021 -0.19660000503063202 -0.9032999873161316 0.8148000240325928 -0.1729000061750412 -0.5533999800682068
          0.29249998927116394 -0.9546999931335449 -0.0544000007212162 0.6547999978065491 -0.5095000267028809 0.5583000183105469
          0.8540999889373779 -0.5141000151634216 0.07900000363588333 0.5903000235557556 -0.47530001401901245 0.652400016784668
          0.5453000068664551 -0.4893999993801117 0.6804999709129333 0.5259000062942505 -0.4496000111103058 0.722000002861023
          -0.6290000081062317 0.3084000051021576 0.7135999798774719 -0.5138999819755554 0.37940001487731934 0.7694000005722046
          -0.4740999937057495 0.47099998593330383 0.7439000010490417 0.8122000098228455 0.583299994468689 -0.01119999960064888
          0.3756999969482422 0.9075999855995178 0.1873999983072281 0.7797999978065491 0.6259999871253967 0.004900000058114529
          0.9258000254631042 0.3758000135421753 -0.0414000004529953 0.6467000246047974 -0.21739999949932098 0.7311000227928162
          0.40950000286102295 -0.1469999998807907 0.9003999829292297 0.5684000253677368 -0.09149999916553497 0.8177000284194946
          -0.029899999499320984 -0.3935999870300293 -0.9187999963760376 -0.3725999891757965 -0.37860000133514404 -0.8472999930381775
          -0.2526000142097473 -0.3321000039577484 -0.9088000059127808 -0.9050999879837036 -0.1356000006198883 -0.40310001373291016
          -0.36579999327659607 0.8931000232696533 -0.26190000772476196 -0.2815000116825104 0.09790000319480896 -0.9545000195503235
          -0.30169999599456787 0.14509999752044678 -0.942300021648407 -0.9063000082969666 0.298799991607666 0.298799991607666
          -0.9387999773025513 0.2971000075340271 0.1745000034570694 -0.8973000049591064 0.2599000036716461 0.35679998993873596
          -0.9979000091552734 -0.028999999165534973 -0.057999998331069946 -0.9868000149726868 0.14149999618530273 0.07840000092983246
          -0.8414999842643738 0.3959999978542328 0.36739999055862427 -0.746999979019165 0.46549999713897705 0.474700003862381
          -0.8417999744415283 0.39469999074935913 0.36820000410079956 -0.945900022983551 0.27489998936653137 0.17249999940395355
          -0.9071000218391418 0.34940001368522644 0.23479999601840973 -0.1995999962091446 0.47749999165534973 -0.8555999994277954
          0.01850000023841858 0.5343999862670898 -0.8450000286102295 -0.1599999964237213 -0.7124999761581421 0.6832000017166138
          0.4472000002861023 -0.7508000135421753 -0.4862000048160553 -0.251800000667572 0.0421999990940094 -0.9667999744415283
          -0.4749000072479248 0.19900000095367432 -0.857200026512146 0.6276000142097473 -0.251800000667572 0.7366999983787537
          0.6553999781608582 -0.2409999966621399 0.7157999873161316 0.5034999847412109 -0.3725999891757965 0.7795000076293945
          0.9244999885559082 0.37209999561309814 -0.08269999921321869 0.9402999877929688 0.3199999928474426 -0.11599999666213989
          0.9976000189781189 0.06360000371932983 0.025499999523162842 0.42559999227523804 0.6327000260353088 0.6470000147819519
          0.6809999942779541 0.5605999827384949 0.47119998931884766 0.2475000023841858 0.5842999815940857 0.7728999853134155
          -0.02419999986886978 -0.3472000062465668 0.9375 -0.6977999806404114 -0.715499997138977 0.03449999913573265
          -0.5884000062942505 -0.7516999840736389 0.2978000044822693 -0.590499997138977 -0.38019999861717224 0.711899995803833
          0.8194000124931335 -0.4745999872684479 -0.3215999901294708 0.6779000163078308 -0.597599983215332 -0.42809998989105225
          0.59170001745224 -0.7696999907493591 0.23970000445842743 0.6485000252723694 -0.5187000036239624 -0.557200014591217
          0.7347999811172485 -0.6334999799728394 0.2425999939441681 0.5454999804496765 -0.7017999887466431 0.45829999446868896
          -0.7106000185012817 0.7016000151634216 0.05260000005364418 -0.8125 -0.39570000767707825 0.42809998989105225
          -0.43689998984336853 0.3783000111579895 0.816100001335144 0.30140000581741333 -0.11990000307559967 0.945900022983551
          0.6579999923706055 -0.3253999948501587 0.679099977016449 0.5548999905586243 0.056699998676776886 0.8299999833106995
          0.33719998598098755 -0.9096999764442444 -0.24230000376701355 0.5120000243186951 0.3971000015735626 -0.7616999745368958
          0.8708000183105469 0.3231000006198883 -0.37059998512268066 0.7940000295639038 0.6010000109672546 -0.09149999916553497
          0.4065000116825104 -0.18299999833106995 0.8950999975204468 0.7009999752044678 0.3849000036716461 0.6003999710083008
          0.590499997138977 -0.21809999644756317 0.7770000100135803 -0.9556000232696533 0.23999999463558197 0.17100000381469727
          -0.9886000156402588 0.14569999277591705 0.03880000114440918 -0.6877999901771545 0.058800000697374344 0.7235000133514404
          -0.34299999475479126 -0.12380000203847885 0.9311000108718872 -0.5152999758720398 0.048900000751018524 0.8555999994277954
          0.5899999737739563 0.7825999855995178 -0.19850000739097595 0.16169999539852142 0.9858999848365784 0.043800000101327896
          0.39430001378059387 0.9174000024795532 0.053599998354911804 -0.9143999814987183 0.37290000915527344 -0.1573999971151352
          -0.9014999866485596 0.4228000044822693 -0.09260000288486481 -0.7919999957084656 0.5943999886512756 -0.13920000195503235
          0.7870000004768372 0.04809999838471413 -0.6151000261306763 0.22869999706745148 0.030799999833106995 -0.9729999899864197
          0.9822999835014343 0.09600000083446503 -0.16060000658035278 0.9527000188827515 -0.2003999948501587 -0.22859999537467957
          -0.8206999897956848 -0.29499998688697815 -0.489300012588501 -0.8661999702453613 -0.24889999628067017 -0.43320000171661377
          -0.652999997138977 -0.3091999888420105 -0.6913999915122986 -0.3492000102996826 -0.5687000155448914 -0.744700014591217
          -0.25529998540878296 -0.8105000257492065 -0.5271999835968018 -0.5849000215530396 -0.6553999781608582 -0.47780001163482666
          0.864799976348877 -0.3018999993801117 0.40130001306533813 0.6086000204086304 0.22169999778270721 0.761900007724762
          0.9857000112533569 -0.15199999511241913 -0.07280000299215317 -0.2800000011920929 -0.8206999897956848 0.49799999594688416
          0.4912000000476837 -0.7106000185012817 0.5037999749183655 0.9878000020980835 -0.05770000070333481 0.14499999582767487
          0.946399986743927 0.016499999910593033 -0.32249999046325684 0.9860000014305115 0.1639000028371811 0.030500000342726707
          -0.7304999828338623 0.051500000059604645 -0.680899977684021 0.4733000099658966 -0.11969999969005585 -0.8726999759674072
          0.17739999294281006 -0.17329999804496765 -0.9688000082969666 0.0034000000450760126 -0.11729999631643295 -0.9930999875068665
          0.4796999990940094 -0.6855999827384949 -0.5475999712944031 -0.5131000280380249 -0.44940000772476196 -0.7311999797821045
          -0.6621000170707703 -0.6547999978065491 -0.3644999861717224 -0.2653000056743622 0.7253000140190125 0.6352999806404114
          0.24279999732971191 0.3610999882221222 0.9003000259399414 0.5590999722480774 0.4659000039100647 0.6858000159263611
          0.8299000263214111 -0.1889999955892563 -0.5249000191688538 0.8343999981880188 -0.13609999418258667 -0.5340999960899353
          0.7581999897956848 -0.45669999718666077 -0.4652999937534332 0.2906000018119812 -0.3788999915122986 -0.878600001335144
          -0.13349999487400055 0.43790000677108765 -0.8891000151634216 -0.3271999955177307 0.503000020980835 -0.800000011920929
          -0.026399999856948853 0.8840000033378601 -0.4666999876499176 -0.9423999786376953 0.2207999974489212 -0.25110000371932983
          -0.5396000146865845 0.31139999628067017 -0.7821999788284302 -0.2903999984264374 0.3880000114440918 -0.8747000098228455
          -0.3677000105381012 0.28790000081062317 -0.8842999935150146 0.8996999859809875 0.4345000088214874 -0.042399998754262924
          0.917900025844574 0.39500001072883606 -0.03669999912381172 0.7853000164031982 0.5999000072479248 -0.15309999883174896
          -0.6060000061988831 0.47350001335144043 0.63919997215271 -0.4544999897480011 0.5307000279426575 0.715399980545044
          -0.3377000093460083 0.7441999912261963 0.5763000249862671 0.3398999869823456 -0.2596000134944916 0.9039000272750854
          0.3125999867916107 -0.34290000796318054 0.8859000205993652 0.15320000052452087 -0.3474000096321106 0.9251000285148621
          0.2971999943256378 -0.27810001373291016 0.9133999943733215 0.41760000586509705 -0.4212999939918518 0.8051000237464905
          0.014800000004470348 0.07590000331401825 -0.996999979019165 0.08089999854564667 -0.0560000017285347 -0.9951000213623047
          0.6680999994277954 -0.39800000190734863 0.6287000179290771 0.6110000014305115 -0.40869998931884766 0.6779999732971191
          -0.7128000259399414 -0.26899999380111694 0.6477000117301941 -0.9039999842643738 0.22579999268054962 0.3628999888896942
          -0.8985000252723694 0.4189999997615814 0.1307000070810318 -0.807200014591217 0.45239999890327454 0.3790999948978424
          -0.8051999807357788 0.5777000188827515 0.13369999825954437 0.43479999899864197 0.8992000222206116 0.048900000751018524
          0.6916000247001648 0.6736000180244446 -0.2606000006198883 0.7402999997138977 0.6568999886512756 0.14319999516010284
          -0.7337999939918518 -0.031099999323487282 -0.678600013256073 -0.5875999927520752 -0.04410000145435333 -0.8079000115394592
          -0.6669999957084656 -0.2526000142097473 -0.7009999752044678 -0.49799999594688416 -0.28630000352859497 -0.8185999989509583
          -0.5309000015258789 -0.3711000084877014 -0.761900007724762 0.8694999814033508 0.491100013256073 -0.052400000393390656
          0.7919999957084656 0.5852000117301941 0.17399999499320984 0.763700008392334 0.6377999782562256 -0.09920000284910202
          0.2921000123023987 0.9416999816894531 -0.16680000722408295 0.682200014591217 0.7285000085830688 -0.06199999898672104
          0.38359999656677246 -0.8698999881744385 0.3100999891757965 0.7455000281333923 -0.5727999806404114 -0.3407999873161316
          0.8533999919891357 -0.45750001072883606 0.24969999492168427 0.23250000178813934 -0.5400000214576721 -0.808899998664856
          0.043800000101327896 -0.4867999851703644 -0.8723999857902527 0.7329999804496765 -0.3441999852657318 -0.5867000222206116
          -0.9490000009536743 0.30379998683929443 0.08489999920129776 -0.7333999872207642 0.30320000648498535 0.6083999872207642
          -0.9876999855041504 -0.15000000596046448 0.04520000144839287 -0.9975000023841858 0.030700000002980232 0.0632999986410141
          -0.5924999713897705 -0.017899999395012856 0.805400013923645 -0.13899999856948853 -0.5242000222206116 0.8402000069618225
          -0.2492000013589859 -0.013399999588727951 0.9684000015258789 -0.05220000073313713 0.44179999828338623 0.8956000208854675
          0.6789000034332275 -0.6503000259399414 0.3409000039100647 0.4311000108718872 -0.29409998655319214 0.8531000018119812
          0.22689999639987946 -0.7196000218391418 0.6563000082969666 -0.9739000201225281 0.1940000057220459 -0.11760000139474869
          0.6682999730110168 -0.48500001430511475 0.5640000104904175 0.46540001034736633 -0.40299999713897705 -0.788100004196167
          0.824400007724762 -0.41029998660087585 -0.3898000121116638 0.6054999828338623 -0.09300000220537186 -0.7904000282287598
          -0.7991999983787537 0.18150000274181366 0.5730000138282776 -0.8414999842643738 0.210099995136261 0.49779999256134033
          -0.7148000001907349 0.19189999997615814 0.6725000143051147 -0.6951000094413757 0.39489999413490295 0.6007000207901001
          -0.8090999722480774 0.16120000183582306 0.5651000142097473 0.3962000012397766 0.36410000920295715 -0.8428999781608582
          0.7732999920845032 0.36550000309944153 -0.5181000232696533 0.15230000019073486 0.1354999989271164 -0.9789999723434448
          -0.23479999601840973 0.21770000457763672 -0.9473000168800354 -0.13439999520778656 0.3393999934196472 -0.9309999942779541
          0.45570001006126404 0.02280000038444996 -0.8898000121116638 0.5120999813079834 0.00430000014603138 -0.8589000105857849
          0.40130001306533813 0.0722000002861023 -0.913100004196167 0.5543000102043152 0.661300003528595 -0.5054000020027161
          -0.11089999973773956 0.8651999831199646 -0.48899999260902405 0.7376999855041504 0.6632999777793884 0.1257999986410141
          -0.1729000061750412 0.5440000295639038 0.8210999965667725 0.37549999356269836 0.7430999875068665 0.5539000034332275
          -0.12600000202655792 0.6960999965667725 0.7069000005722046 -0.4246000051498413 -0.008999999612569809 0.9053000211715698
          0.006500000134110451 0.029200000688433647 0.9995999932289124 -0.9592999815940857 0.050700001418590546 -0.27799999713897705
          -0.9279000163078308 -0.019999999552965164 -0.37229999899864197 -0.9284999966621399 0.27149999141693115 0.2533000111579895
          -0.9627000093460083 0.22370000183582306 0.15209999680519104 -0.8335999846458435 0.17820000648498535 -0.5228000283241272
          -0.741599977016449 0.243599995970726 -0.625 -0.7299000024795532 0.1956000030040741 -0.6549999713897705
          -0.58160001039505 0.06939999759197235 -0.8105000257492065 -0.6021999716758728 0.16599999368190765 -0.7809000015258789
          0.9682000279426575 -0.12710000574588776 -0.21559999883174896 0.5766000151634216 0.4772000014781952 -0.6632000207901001
          0.7297000288963318 0.17339999973773956 -0.6614000201225281 0.8962000012397766 -0.3508000075817108 -0.27160000801086426
          0.5041000247001648 -0.8442000150680542 0.18250000476837158 -0.9118000268936157 -0.18199999630451202 -0.36800000071525574
          0.0006000000284984708 -0.34779998660087585 0.9376000165939331 -0.11580000072717667 -0.965399980545044 0.23360000550746918
          -0.6141999959945679 -0.7251999974250793 0.31119999289512634 0.7365999817848206 0.07609999924898148 0.671999990940094
          0.9620000123977661 0.1965000033378601 0.18950000405311584 0.7709000110626221 -0.15940000116825104 0.6166999936103821
          0.8889999985694885 0.10939999669790268 0.444599986076355 0.4016999900341034 -0.3959999978542328 0.8258000016212463
          0.4359999895095825 -0.5619999766349792 0.7028999924659729 -0.4523000121116638 -0.84170001745224 0.29499998688697815
          -0.45419999957084656 -0.8884000182151794 0.066600002348423 -0.5692999958992004 -0.8203999996185303 -0.05339999869465828
          -0.10350000113248825 -0.5285000205039978 0.8425999879837036 -0.10320000350475311 0.23160000145435333 0.9672999978065491
          0.10199999809265137 0.5511999726295471 0.8281000256538391 0.9211999773979187 -0.3885999917984009 0.019099999219179153
          0.8075000047683716 0.18299999833106995 -0.560699999332428 -0.22689999639987946 -0.04019999876618385 -0.9731000065803528
          -0.4864000082015991 0.131400004029274 -0.8637999892234802 -0.45899999141693115 0.38850000500679016 -0.7990000247955322
          -0.5241000056266785 -0.4999000132083893 0.6894999742507935 -0.4894999861717224 -0.08780000358819962 0.8676000237464905
          -0.5681999921798706 -0.45680001378059387 0.684499979019165 0.4068000018596649 -0.6281999945640564 0.6632000207901001
          0.09920000284910202 -0.6929000020027161 0.7142000198364258 0.4869000017642975 -0.4528999924659729 0.7469000220298767
          0.35690000653266907 0.7105000019073486 -0.6065000295639038 0.8460000157356262 0.4828999936580658 0.22619999945163727
          -0.4068000018596649 0.498199999332428 -0.7656999826431274 0.08129999786615372 0.20819999277591705 -0.9746999740600586
          -0.36239999532699585 0.4025999903678894 -0.8406000137329102 -0.4779999852180481 0.2752000093460083 -0.8341000080108643
          0.14839999377727509 0.40130001306533813 0.9038000106811523 -0.13940000534057617 0.05510000139474869 0.9886999726295471
          -0.066600002348423 0.3052999973297119 0.9498999714851379 0.13249999284744263 -0.46000000834465027 0.878000020980835
          0.45339998602867126 -0.2759000062942505 0.8475000262260437 0.47029998898506165 -0.23000000417232513 0.8519999980926514
          0.5626999735832214 -0.34060001373291016 0.7533000111579895 -0.02969999983906746 -0.30869999527931213 0.9506999850273132
          0.31709998846054077 -0.3059000074863434 0.8977000117301941 -0.2784999907016754 0.033399999141693115 0.9598000049591064
          -0.6209999918937683 0.28189998865127563 0.7312999963760376 -0.8008000254631042 0.44510000944137573 0.40070000290870667
          -0.6122000217437744 0.6700999736785889 0.4196999967098236 -0.5662999749183655 0.7502999901771545 0.34130001068115234
          -0.6845999956130981 0.5669999718666077 0.45809999108314514 -0.6047000288963318 0.5496000051498413 0.5763999819755554
          0.03519999980926514 -0.2935999929904938 -0.955299973487854 -0.27709999680519104 -0.13410000503063202 -0.9513999819755554
          -0.09309999644756317 -0.17170000076293945 -0.9807000160217285 -0.4223000109195709 -0.1273999959230423 -0.8974000215530396
          0.31850001215934753 -0.26440000534057617 0.9103000164031982 0.46239998936653137 -0.23639999330043793 0.8546000123023987
          -0.48989999294281006 -0.8518999814987183 -0.18490000069141388 -0.7804999947547913 -0.5848000049591064 -0.2207999974489212
          -0.9089999794960022 -0.3386000096797943 -0.24310000240802765 -0.9453999996185303 -0.32600000500679016 -0.0013000000035390258
          -0.9354000091552734 -0.33239999413490295 -0.12049999833106995 -0.9765999913215637 -0.2085999995470047 0.05139999836683273
          -0.9538000226020813 0.14069999754428864 0.2655999958515167 -0.8729000091552734 0.04650000110268593 0.48570001125335693
          -0.8550000190734863 0.17980000376701355 0.4864000082015991 -0.9603000283241272 0.04010000079870224 0.2761000096797943
          -0.9226999878883362 -0.016699999570846558 0.38530001044273376 0.9189000129699707 -0.07569999992847443 -0.3871000111103058
          0.9652000069618225 0.19089999794960022 -0.1784999966621399 0.9312999844551086 0.32690000534057617 -0.16040000319480896
          0.8048999905586243 0.5200999975204468 -0.2854999899864197 0.7950000166893005 0.569599986076355 -0.2085999995470047
          0.8288000226020813 0.49720001220703125 0.2563999891281128 0.47040000557899475 -0.4499000012874603 0.7591999769210815
          0.004100000020116568 -0.8554999828338623 0.517799973487854 -0.7128999829292297 0.6243000030517578 -0.31949999928474426
          -0.7520999908447266 0.6449000239372253 -0.1356000006198883 0.7113000154495239 -0.4255000054836273 -0.559499979019165
          0.9352999925613403 -0.19499999284744263 -0.2953999936580658 -0.7739999890327454 0.6262999773025513 -0.09309999644756317
          0.3093999922275543 0.9477999806404114 -0.07779999822378159 0.6592000126838684 0.7318999767303467 -0.17239999771118164
          0.5620999932289124 -0.4327999949455261 -0.7046999931335449 0.8794999718666077 0.1137000024318695 0.46209999918937683
          0.31619998812675476 0.36320000886917114 0.8763999938964844 0.6672000288963318 0.16290000081062317 0.7268999814987183
          0.7064999938011169 0.36239999532699585 0.6079000234603882 0.01119999960064888 0.33309999108314514 0.942799985408783
          0.3424000144004822 0.9218999743461609 0.18140000104904175 -0.12540000677108765 0.7962999939918518 0.5917999744415283
          -0.24130000174045563 0.8827999830245972 0.40299999713897705 -0.3783999979496002 0.7921000123023987 0.4790000021457672
          0.24130000174045563 0.920799970626831 0.30640000104904175 0.030300000682473183 -0.3702000081539154 0.9284999966621399
          -0.07609999924898148 -0.2883000075817108 0.9545000195503235 0.38280001282691956 -0.1412999927997589 0.9129999876022339
          0.6349999904632568 -0.1412000060081482 0.7595000267028809 0.2955000102519989 -0.8263000249862671 -0.4794999957084656
          0.7565000057220459 -0.607200026512146 -0.24269999563694 0.914900004863739 0.3723999857902527 0.155799999833107
          0.8519999980926514 0.5217000246047974 0.04479999840259552 0.6043999791145325 0.7228000164031982 0.335099995136261
          0.6895999908447266 0.1657000035047531 0.7049999833106995 0.3905999958515167 -0.03240000084042549 0.9200000166893005
          0.13099999725818634 0.4629000127315521 -0.8766999840736389 0.27950000762939453 0.37940001487731934 -0.8820000290870667
          -0.25690001249313354 -0.42590001225471497 -0.8675000071525574 -0.5429999828338623 -0.41519999504089355 -0.7299000024795532
          -0.748199999332428 -0.28349998593330383 -0.5997999906539917 -0.9230999946594238 0.3075999915599823 0.23080000281333923
          -0.942300021648407 0.28870001435279846 0.16930000483989716 -0.8744999766349792 0.3147999942302704 0.36910000443458557
          -0.9333000183105469 0.35199999809265137 -0.0706000030040741 -0.7300999760627747 0.2168000042438507 0.6481000185012817
          -0.6830999851226807 0.047200001776218414 0.7287999987602234 -0.9218999743461609 0.2248000055551529 0.3154999911785126
          0.37940001487731934 0.057100001722574234 -0.9235000014305115 0.05620000138878822 0.23340000212192535 -0.97079998254776
          0.46970000863075256 -0.8030999898910522 -0.36660000681877136 0.4851999878883362 0.40529999136924744 0.7748000025749207
          0.12690000236034393 0.21060000360012054 0.9692999720573425 -0.04659999907016754 0.2597000002861023 0.9646000266075134
          0.6176000237464905 0.07270000129938126 0.7832000255584717 -0.41429999470710754 0.001500000013038516 -0.910099983215332
          0.9728999733924866 -0.23100000619888306 0.012900000438094139 0.5108000040054321 -0.8324999809265137 -0.21449999511241913
          0.09629999846220016 -0.7699999809265137 -0.6308000087738037 -0.01850000023841858 -0.9319999814033508 -0.3619000017642975
          -0.6396999955177307 -0.2459000051021576 -0.7282000184059143 -0.9677000045776367 -0.03709999844431877 -0.24950000643730164
          -0.7997999787330627 -0.38909998536109924 -0.45719999074935913 -0.22460000216960907 0.617900013923645 -0.7534999847412109
          0.04479999840259552 0.8468999862670898 -0.5297999978065491 0.05620000138878822 0.4007999897003174 -0.9143999814987183
          0.5134000182151794 -0.838100016117096 0.1842000037431717 0.7189000248908997 0.6877999901771545 -0.10010000318288803
          0.7289000153541565 -0.22419999539852142 0.6468999981880188 0.04919999837875366 -0.038100000470876694 0.9980999827384949
          0.24150000512599945 0.008899999782443047 -0.9703999757766724 0.7773000001907349 -0.13819999992847443 -0.6137999892234802
          0.5946999788284302 -0.053599998354911804 -0.8021000027656555 0.7190999984741211 0.018400000408291817 -0.6947000026702881
          -0.7249000072479248 0.5011000037193298 0.47269999980926514 -0.1193000003695488 0.31619998812675476 0.941100001335144
          0.583899974822998 -0.16380000114440918 0.795199990272522 0.6122999787330627 -0.11159999668598175 0.7827000021934509
          0.47510001063346863 -0.5048999786376953 0.7206000089645386 -0.6899999976158142 -0.45969998836517334 0.5590999722480774
          -0.6883000135421753 0.4180999994277954 0.5928000211715698 -0.992900013923645 0.10920000076293945 -0.04820000007748604
          -0.9894000291824341 0.08399999886751175 -0.1185000017285347 -0.6384000182151794 -0.1370999962091446 -0.7573999762535095
          -0.7936999797821045 -0.1080000028014183 -0.5985999703407288 0.00430000014603138 0.13089999556541443 -0.9914000034332275
          0.7111999988555908 0.27730000019073486 0.6459000110626221 -0.33489999175071716 -0.6888999938964844 0.642799973487854
          -0.2612000107765198 -0.41690000891685486 0.8705999851226807 -0.07620000094175339 0.09290000051259995 -0.9927999973297119
          -0.12210000306367874 0.24619999527931213 -0.9614999890327454 0.5426999926567078 0.21130000054836273 -0.8129000067710876
          -0.22120000422000885 -0.9485999941825867 -0.226500004529953 0.32690000534057617 -0.699999988079071 -0.6349999904632568
          0.34150001406669617 -0.9174000024795532 -0.20430000126361847 -0.06129999831318855 0.26249998807907104 -0.9629999995231628
          -0.399399995803833 0.6184999942779541 -0.6766999959945679 -0.47110000252723694 0.4259999990463257 -0.7724000215530396
          -0.8741999864578247 0.18690000474452972 -0.4481000006198883 -0.878000020980835 0.22370000183582306 -0.42320001125335693
          -0.19529999792575836 0.08760000020265579 0.9768000245094299 -0.6973000168800354 -0.6001999974250793 -0.3917999863624573
          -0.6804999709129333 -0.7213000059127808 -0.1290999948978424 -0.8414000272750854 -0.31949999928474426 -0.4359000027179718
          -0.6987000107765198 -0.6779999732971191 -0.22830000519752502 -0.8830999732017517 -0.39750000834465027 -0.2492000013589859
          -0.9021000266075134 0.3425999879837036 0.2621999979019165 -0.8486999869346619 0.3255000114440918 0.41690000891685486
          -0.9606000185012817 0.05090000107884407 -0.2732999920845032 -0.2554999887943268 -0.21310000121593475 -0.9430000185966492
          -0.5925999879837036 -0.09120000153779984 -0.8003000020980835 0.534600019454956 -0.4778999984264374 -0.6970000267028809
          0.7983999848365784 -0.21960000693798065 -0.5605999827384949 0.8339999914169312 0.0697999969124794 0.5472999811172485
          0.929099977016449 -0.29760000109672546 0.21969999372959137 0.5936999917030334 0.8033999800682068 -0.04479999840259552
          -0.5781999826431274 -0.23029999434947968 -0.7827000021934509 0.6531999707221985 -0.659500002861023 0.3720000088214874
          0.8288999795913696 -0.47269999980926514 -0.29919999837875366 0.5953999757766724 -0.507099986076355 0.623199999332428
          0.1256999969482422 0.09749999642372131 -0.9872999787330627 0.37700000405311584 -0.5649999976158142 -0.7339000105857849
          0.7286999821662903 -0.45879998803138733 -0.5084999799728394 0.06650000065565109 0.38449999690055847 -0.9207000136375427