<?xml version="1.0"?>
<VTKFile type="PolyData" version="0.1" byte_order="LittleEndian" header_type="UInt32" compressor="vtkZLibDataCompressor">
  <PolyData>
    <FieldData>
      <Array type="String" Name="MaterialNames" NumberOfTuples="1" format="ascii">
        109 97 116 101 114 105 97 108 95 48 0
      </Array>
      <Array type="String" Name="MaterialLibraries" NumberOfTuples="1" format="ascii">
        109 97 116 101 114 105 97 108 46 109 116 108 0
      </Array>
    </FieldData>
    <Piece NumberOfPoints="1880" NumberOfVerts="0" NumberOfLines="0" NumberOfStrips="0" NumberOfPolys="3714">
      <PointData Normals="Normals">
        <DataArray type="Float32" Name="Normals" NumberOfComponents="3" format="ascii" RangeMin="0.9999232910330589" RangeMax="1.0000730660106603">
          -0.6448000073432922 -0.5200999975204468 0.5601000189781189 -0.6349999904632568 -0.5020999908447266 0.5871000289916992
          -0.6367999911308289 -0.5491999983787537 0.541100025177002 0.82669997215271 -0.5605000257492065 -0.04830000177025795
          0.8104000091552734 -0.5651000142097473 -0.15449999272823334 0.8374999761581421 -0.5055999755859375 -0.20720000565052032
          -0.48240000009536743 0.5400999784469604 -0.6895999908447266 -0.34940001368522644 0.5522000193595886 -0.7570000290870667
          -0.4043000042438507 0.4417000114917755 -0.8008999824523926 0.6783999800682068 0.7192999720573425 0.14970000088214874
          0.6274999976158142 0.744700014591217 0.22709999978542328 0.7235000133514404 0.6610999703407288 0.1988999992609024
          0.12110000103712082 0.29649999737739563 0.9473000168800354 0.10530000180006027 0.14959999918937683 0.9830999970436096
          0.23309999704360962 0.24449999630451202 0.9412000179290771 0.7638000249862671 -0.5979999899864197 -0.24289999902248383
          0.7815999984741211 -0.5902000069618225 -0.20170000195503235 0.7164000272750854 -0.6579999923706055 -0.23199999332427979
          -0.012600000016391277 0.9948999881744385 -0.10040000081062317 0.0934000015258789 0.9896000027656555 -0.1096000000834465
          0.07460000365972519 0.9807000160217285 -0.1808999925851822 -0.7325999736785889 0.002300000051036477 0.6807000041007996
          -0.6621999740600586 -0.06279999762773514 0.7466999888420105 -0.6353999972343445 0.12070000171661377 0.7627000212669373
          -0.8501999974250793 -0.41839998960494995 -0.3197000026702881 -0.8468999862670898 -0.38690000772476196 -0.36480000615119934
          -0.8992000222206116 -0.38280001282691956 -0.21170000731945038 0.6620000004768372 -0.7358999848365784 0.14219999313354492
          0.7350000143051147 -0.6686000227928162 -0.1128000020980835 0.7196999788284302 -0.6938999891281128 0.02500000037252903
          0.09960000216960907 0.5134000182151794 -0.852400004863739 0.11159999668598175 0.37459999322891235 -0.9204000234603882
          -0.005799999926239252 0.41839998960494995 -0.9082000255584717 0.5774999856948853 0.6004999876022339 -0.5529999732971191
          0.5677000284194946 0.574400007724762 -0.5896999835968018 0.5565000176429749 0.6292999982833862 -0.5424000024795532
          0.0738999992609024 -0.13920000195503235 0.987500011920929 0.08460000157356262 -0.21870000660419464 0.972100019454956
          0.18880000710487366 -0.1590999960899353 0.968999981880188 -0.47209998965263367 -0.557200014591217 0.6832000017166138
          -0.520799994468689 -0.4065000116825104 0.7506999969482422 -0.5656999945640564 -0.4812999963760376 0.6694999933242798
          -0.8970999717712402 0.15440000593662262 0.414000004529953 -0.8586000204086304 0.05290000140666962 0.5098999738693237
          -0.8611999750137329 0.11990000307559967 0.49390000104904175 -0.868399977684021 -0.06849999725818634 -0.491100013256073
          -0.8410000205039978 -0.14710000157356262 -0.5206999778747559 -0.8992000222206116 -0.12210000306367874 -0.42010000348091125
          0.9652000069618225 -0.24269999563694 -0.09730000048875809 0.9186000227928162 -0.33550000190734863 -0.20890000462532043
          0.9314000010490417 -0.2946000099182129 -0.21389999985694885 -0.5601000189781189 0.05849999934434891 -0.8263000249862671
          -0.6284000277519226 0.16200000047683716 -0.7608000040054321 -0.5250999927520752 0.1501999944448471 -0.8377000093460083
          0.243599995970726 -0.40459999442100525 -0.8813999891281128 0.2612999975681305 -0.4627000093460083 -0.8471999764442444
          0.37470000982284546 -0.5113999843597412 -0.7732999920845032 0.9156000018119812 -0.27160000801086426 0.29660001397132874
          0.9132000207901001 -0.21969999372959137 0.34310001134872437 0.9110999703407288 0.0071000000461936 0.412200003862381
          0.6827999949455261 0.6358000040054321 0.35989999771118164 0.6672999858856201 0.6154999732971191 0.41929998993873596
          0.7184000015258789 0.6216999888420105 0.31220000982284546 0.38999998569488525 0.6629999876022339 0.6389999985694885
          0.4203999936580658 0.5877000093460083 0.6912999749183655 0.5123999714851379 0.6392999887466431 0.5734000205993652
          -0.021700000390410423 0.9266999959945679 0.3750999867916107 -0.12680000066757202 0.8784999847412109 0.46050000190734863
          0.0019000000320374966 0.9549000263214111 0.296999990940094 0.7947999835014343 0.5789999961853027 0.1817999929189682
          0.8228999972343445 0.49059998989105225 0.2865999937057495 0.8709999918937683 0.4496000111103058 0.19840000569820404
          0.9771000146865845 -0.06629999727010727 -0.20229999721050262 0.9556000232696533 0.07190000265836716 -0.2858000099658966
          0.9751999974250793 -0.17299999296665192 -0.13779999315738678 -0.16740000247955322 -0.89410001039505 0.41530001163482666
          0.07490000128746033 -0.9577999711036682 0.2773999869823456 -0.21570000052452087 -0.8472999930381775 0.4853000044822693
          0.179299995303154 0.9697999954223633 -0.1656000018119812 0.26980000734329224 0.939300000667572 -0.21170000731945038
          0.25760000944137573 0.9240999817848206 -0.2822999954223633 0.3276999890804291 0.5206999778747559 -0.7883999943733215
          0.31769999861717224 0.4562999904155731 -0.8312000036239624 0.3589000105857849 0.4894999861717224 -0.794700026512146
          -0.5605000257492065 0.7215999960899353 0.4065000116825104 -0.504800021648407 0.8331999778747559 0.2257000058889389
          -0.6140999794006348 0.7465999722480774 0.25589999556541443 -0.4065999984741211 0.6502000093460083 -0.6417999863624573
          -0.3361000120639801 0.7441999912261963 -0.5771999955177307 -0.2921000123023987 0.6927000284194946 -0.659500002861023
          -0.21310000121593475 0.4018000066280365 0.8906000256538391 -0.18520000576972961 0.3050000071525574 0.9341999888420105
          -0.10180000215768814 0.414900004863739 0.90420001745224 -0.0017999999690800905 0.8077999949455261 0.5895000100135803
          0.029100000858306885 0.7567999958992004 0.652999997138977 0.12330000102519989 0.8600999712944031 0.4950000047683716
          -0.5024999976158142 0.22349999845027924 -0.8352000117301941 -0.6407999992370605 0.1988999992609024 -0.7415000200271606
          -0.5318999886512756 0.20829999446868896 -0.8208000063896179 -0.974399983882904 0.19210000336170197 -0.1168999969959259
          -0.9739000201225281 0.22179999947547913 -0.04830000177025795 -0.9837999939918518 0.1469999998807907 0.10260000079870224
          0.830299973487854 -0.5454000234603882 0.11469999700784683 0.7932000160217285 -0.5891000032424927 0.1542000025510788
          0.8248999714851379 -0.5160999894142151 0.2304999977350235 0.680400013923645 -0.36469998955726624 -0.635699987411499
          0.669700026512146 -0.47850000858306885 -0.5679000020027161 0.6474000215530396 -0.36649999022483826 -0.6682000160217285
          0.01269999984651804 0.21480000019073486 -0.9765999913215637 -0.07880000025033951 0.21610000729560852 -0.9732000231742859
          -0.04529999941587448 0.1623000055551529 -0.9857000112533569 0.047200001776218414 0.24959999322891235 -0.967199981212616
          -0.5231999754905701 -0.20469999313354492 0.8273000121116638 -0.44699999690055847 -0.1940000057220459 0.873199999332428
          -0.43939998745918274 -0.12099999934434891 0.8901000022888184 -0.6633999943733215 -0.33899998664855957 0.6671000123023987
          -0.6331999897956848 -0.33869999647140503 0.6959999799728394 -0.6212000250816345 -0.4066999852657318 0.6697999835014343
          -0.8396999835968018 -0.38749998807907104 0.3806000053882599 -0.7947999835014343 -0.37720000743865967 0.4754999876022339
          -0.8472999930381775 -0.3370000123977661 0.4104999899864197 -0.9670000076293945 -0.0885000005364418 0.23899999260902405
          -0.9818000197410583 -0.017999999225139618 0.1890999972820282 -0.9124000072479248 -0.03849999979138374 0.4074999988079071
          0.32739999890327454 0.31679999828338623 0.8902000188827515 0.3596999943256378 0.35260000824928284 0.8639000058174133
          0.28619998693466187 0.3325999975204468 0.8985999822616577 0.7483000159263611 -0.2451999932527542 0.6162999868392944
          0.6656000018119812 -0.025699999183416367 0.7458999752998352 0.6679999828338623 -0.1655000001192093 0.7254999876022339
          0.550599992275238 -0.24660000205039978 -0.7975000143051147 0.7023000121116638 -0.35920000076293945 -0.6146000027656555
          0.6578999757766724 -0.2906000018119812 -0.6948000192642212 0.7188000082969666 0.44760000705718994 -0.5318999886512756
          0.8260999917984009 0.3061000108718872 -0.4731999933719635 0.8485999703407288 0.2190999984741211 -0.4814999997615814
          -0.791100025177002 -0.09610000252723694 -0.6040999889373779 -0.7554000020027161 -0.03099999949336052 -0.6545000076293945
          -0.7160999774932861 -0.14880000054836273 -0.6819999814033508 -0.9855999946594238 0.10859999805688858 0.12929999828338623
          -0.9918000102043152 0.11840000003576279 -0.0471000000834465 0.27970001101493835 -0.6682000160217285 0.6894000172615051
          0.2705000042915344 -0.7340999841690063 0.6229000091552734 0.19949999451637268 -0.6855000257492065 0.7002000212669373
          0.14560000598430634 -0.9883999824523926 0.04340000078082085 0.23080000281333923 -0.934499979019165 0.27090001106262207
          0.30570000410079956 -0.9405999779701233 0.14800000190734863 -0.98580002784729 0.15379999577999115 0.06679999828338623
          -0.9817000031471252 0.07919999957084656 0.17299999296665192 -0.9656999707221985 0.15489999949932098 0.2085999995470047
          -0.6920999884605408 0.5396000146865845 -0.47929999232292175 -0.7605999708175659 0.49570000171661377 -0.41940000653266907
          -0.7828999757766724 0.5503000020980835 -0.29019999504089355 -0.9596999883651733 0.09430000185966492 0.26489999890327454
          -0.8248999714851379 -0.48919999599456787 0.2831999957561493 -0.7633000016212463 -0.5410000085830688 0.3531999886035919
          -0.7968000173568726 -0.48019999265670776 0.3668000102043152 0.9135000109672546 -0.3172000050544739 0.2547000050544739
          0.8729000091552734 -0.3183000087738037 0.3698999881744385 0.9901999831199646 -0.08079999685287476 0.11410000175237656
          0.07810000330209732 -0.9549999833106995 0.28630000352859497 0.34200000762939453 -0.8980000019073486 0.2768000066280365
          0.18209999799728394 -0.9549999833106995 0.23409999907016754 -0.0860000029206276 -0.9581999778747559 0.2728999853134155
          -0.7795000076293945 -0.48510000109672546 0.39629998803138733 -0.7075999975204468 -0.5580999851226807 0.4332999885082245
          -0.7838000059127808 -0.43459999561309814 0.44359999895095825 0.7613000273704529 -0.6014000177383423 -0.24240000545978546
          0.7706000208854675 -0.613099992275238 -0.17430000007152557 0.7698000073432922 -0.5853000283241272 -0.25459998846054077
          0.7523000240325928 -0.6588000059127808 0.002099999925121665 0.8544999957084656 -0.5194000005722046 -0.00009999999747378752
          0.8296999931335449 -0.5533000230789185 -0.07320000231266022 0.6897000074386597 -0.5324000120162964 0.49079999327659607
          0.6083999872207642 -0.5605000257492065 0.5619000196456909 0.48840001225471497 -0.6419000029563904 0.5910999774932861
          0.6100000143051147 -0.6880000233650208 -0.39309999346733093 0.5807999968528748 -0.6046000123023987 -0.545199990272522
          0.641700029373169 -0.593500018119812 -0.48579999804496765 0.45989999175071716 0.8855000138282776 0.066600002348423
          0.47929999232292175 0.8654999732971191 0.14569999277591705 0.5491999983787537 0.8345000147819519 0.044199999421834946
          0.0714000016450882 0.7820000052452087 0.6191999912261963 0.14229999482631683 0.8033999800682068 0.5781999826431274
          0.004000000189989805 -0.8777999877929688 0.4788999855518341 0.2858000099658966 -0.92330002784729 0.2563999891281128
          0.26019999384880066 -0.9028000235557556 0.3425000011920929 0.5170000195503235 -0.35850000381469727 0.7773000001907349
          0.37529999017715454 -0.2797999978065491 0.8837000131607056 0.35409998893737793 -0.367900013923645 0.8597999811172485
          -0.5698000192642212 0.8102999925613403 -0.13660000264644623 -0.5008000135421753 0.8425999879837036 -0.1981000006198883
          -0.45399999618530273 0.8537999987602234 -0.2547000050544739 -0.27720001339912415 0.8574000000953674 -0.4334999918937683
          -0.19110000133514404 0.927299976348877 -0.32179999351501465 -0.16419999301433563 0.8996000289916992 -0.40459999442100525
          -0.7731000185012817 -0.13289999961853027 0.6201000213623047 -0.7976999878883362 -0.15870000422000885 0.5819000005722046
          -0.7961000204086304 -0.19859999418258667 0.5716999769210815 -0.7875999808311462 -0.323199987411499 0.5246000289916992
          -0.7617999911308289 -0.26089999079704285 0.5929999947547913 -0.7875000238418579 -0.30630001425743103 0.5347999930381775
          0.3188000023365021 0.8919000029563904 -0.3206999897956848 0.7056000232696533 0.6700999736785889 -0.2303999960422516
          0.6644999980926514 0.6675000190734863 -0.335999995470047 0.659500002861023 0.7110999822616577 -0.243599995970726
          -0.29260000586509705 -0.14020000398159027 -0.945900022983551 -0.3763999938964844 0.10909999907016754 -0.9200000166893005
          -0.18539999425411224 -0.2046000063419342 -0.9610999822616577 0.477400004863739 -0.03150000050663948 -0.8780999779701233
          0.39169999957084656 0.11879999935626984 -0.9124000072479248 0.49380001425743103 0.005900000222027302 -0.8695999979972839
          -0.39559999108314514 0.4113999903202057 0.8210999965667725 -0.3666999936103821 0.27469998598098755 0.8888999819755554
          -0.32659998536109924 0.382099986076355 0.8644999861717224 -0.2955999970436096 0.8395000100135803 0.45590001344680786
          -0.41019999980926514 0.784600019454956 0.4648999869823456 -0.31299999356269836 0.7754999995231628 0.54830002784729
          0.5953999757766724 0.3327000141143799 0.7312999963760376 0.5037999749183655 0.3465000092983246 0.7912999987602234
          0.5565999746322632 0.3086000084877014 0.7713000178337097 0.6955999732017517 0.5378000140190125 0.4763000011444092
          0.713100016117096 0.5809000134468079 0.39259999990463257 0.6388000249862671 0.5828999876976013 0.5022000074386597
          -0.2890999913215637 0.275299996137619 0.9168999791145325 -0.5566999912261963 -0.004399999976158142 0.8306999802589417
          -0.46880000829696655 -0.007600000128149986 0.8833000063896179 -0.579800009727478 -0.06830000132322311 0.8119000196456909
          0.391400009393692 0.5457000136375427 -0.7409999966621399 0.4553000032901764 0.6179999709129333 -0.6409000158309937
          0.4578000009059906 0.5723999738693237 -0.6802999973297119 0.1890999972820282 0.28290000557899475 -0.9402999877929688
          0.20559999346733093 0.29510000348091125 -0.9330999851226807 0.1956000030040741 0.2483000010251999 -0.9487000107765198
          0.9783999919891357 0.10409999638795853 -0.1784999966621399 0.9958000183105469 0.05829999968409538 -0.06989999860525131
          0.9882000088691711 0.05959999933838844 0.1412999927997589 0.7138000130653381 -0.6474000215530396 0.2671999931335449
          0.8393999934196472 -0.5435000061988831 0.003000000026077032 0.7160000205039978 -0.6775000095367432 0.16830000281333923
          0.20479999482631683 0.8246999979019165 -0.5271999835968018 0.28130000829696655 0.8361999988555908 -0.4708999991416931
          0.3197000026702881 0.7720000147819519 -0.5493999719619751 -0.17329999804496765 0.8274999856948853 -0.5339999794960022
          -0.2615000009536743 0.8449000120162964 -0.4666000008583069 -0.1517000049352646 0.8503000140190125 -0.5040000081062317
          -0.9345999956130981 -0.3476000130176544 0.07609999924898148 -0.941100001335144 -0.33809998631477356 0.00279999990016222
          -0.9520000219345093 -0.3001999855041504 0.05909999832510948 -0.904699981212616 -0.29159998893737793 0.31049999594688416
          -0.8824999928474426 -0.30720001459121704 0.3562000095844269 -0.8942000269889832 -0.2964000105857849 0.33559998869895935
          0.84170001745224 0.5083000063896179 -0.18199999630451202 0.9453999996185303 0.31049999594688416 -0.09929999709129333
          0.9186999797821045 0.33390000462532043 -0.21089999377727509 0.6536999940872192 0.7260000109672546 -0.21379999816417694
          0.673799991607666 0.6873999834060669 -0.2709999978542328 0.6345000267028809 0.7150999903678894 -0.29339998960494995
          0.857699990272522 -0.506600022315979 -0.08829999715089798 0.8712999820709229 -0.4851999878883362 -0.07320000231266022
          0.8518000245094299 -0.5037999749183655 -0.1436000019311905 0.8307999968528748 -0.517799973487854 0.20430000126361847
          0.8173999786376953 -0.5410000085830688 0.19789999723434448 -0.26739999651908875 -0.5958999991416931 0.7572000026702881
          -0.3321000039577484 -0.6256999969482422 0.7057999968528748 -0.430400013923645 -0.5449000000953674 0.7196000218391418
          -0.8033999800682068 -0.3578000068664551 0.47600001096725464 -0.7317000031471252 -0.37860000133514404 0.5667999982833862
          -0.792900025844574 -0.46000000834465027 0.39969998598098755 0.8381999731063843 -0.5055999755859375 -0.20419999957084656
          0.8391000032424927 -0.5371999740600586 -0.08500000089406967 0.7502999901771545 -0.43220001459121704 0.5001999735832214
          0.7386999726295471 -0.31349998712539673 -0.5965999960899353 0.7268999814987183 -0.22660000622272491 -0.6482999920845032
          0.6092000007629395 -0.10999999940395355 -0.7853999733924866 0.5217000246047974 0.0031999999191612005 -0.8531000018119812
          0.6352999806404114 -0.11270000040531158 -0.7639999985694885 -0.5353000164031982 -0.08860000222921371 -0.8399999737739563
          -0.454800009727478 -0.062300000339746475 -0.8884000182151794 -0.46709999442100525 -0.006300000008195639 -0.8841999769210815
          -0.8122000098228455 -0.11729999631643295 -0.571399986743927 -0.7200999855995178 -0.15870000422000885 -0.6754000186920166
          -0.6937000155448914 -0.06870000064373016 -0.7170000076293945 0.6771000027656555 -0.6478999853134155 0.3490000069141388
          0.6801000237464905 -0.6931999921798706 0.23849999904632568 0.7215999960899353 -0.6093000173568726 0.3287000060081482
          0.8744000196456909 -0.4681999981403351 -0.12759999930858612 0.8628000020980835 -0.45260000228881836 -0.22519999742507935
          0.8396000266075134 -0.53329998254776 -0.1031000018119812 0.3125999867916107 -0.9383999705314636 0.14710000157356262
          0.5605000257492065 -0.8281000256538391 0.0035000001080334187 0.5171999931335449 -0.8500000238418579 0.10010000318288803
          0.4327000081539154 -0.8902999758720398 0.14159999787807465 -0.8712999820709229 0.0012000000569969416 -0.49070000648498535
          -0.8147000074386597 -0.03420000150799751 -0.5788999795913696 -0.6306999921798706 0.5504000186920166 -0.546999990940094
          -0.6456999778747559 0.5077999830245972 -0.5702999830245972 -0.7075999975204468 0.5149999856948853 -0.4837999939918518
          0.18400000035762787 0.3070000112056732 0.9337999820709229 0.2549999952316284 0.2969000041484833 0.920199990272522
          0.07039999961853027 0.5968000292778015 0.7993000149726868 0.15070000290870667 0.5691999793052673 0.8083000183105469
          0.1679999977350235 0.647599995136261 0.7432000041007996 -0.7585999965667725 -0.18320000171661377 -0.6252999901771545
          -0.809499979019165 -0.2635999917984009 -0.5245000123977661 -0.7730000019073486 -0.21709999442100525 -0.5960999727249146
          -0.8270000219345093 -0.33719998598098755 -0.4498000144958496 -0.8395000100135803 -0.36090001463890076 -0.40619999170303345
          -0.2289000004529953 0.2906000018119812 -0.929099977016449 -0.22110000252723694 0.24940000474452972 -0.942799985408783
          -0.15289999544620514 0.2800000011920929 -0.9477999806404114 0.2167000025510788 -0.11699999868869781 -0.9692000150680542
          0.03840000182390213 0.020400000736117363 -0.9991000294685364 0.00930000003427267 0.16189999878406525 -0.9868000149726868
          0.5245000123977661 0.5802000164985657 -0.6230999827384949 0.527999997138977 0.6168000102043152 -0.5838000178337097
          0.4478999972343445 0.8335000276565552 -0.32339999079704285 0.5450999736785889 0.7901999950408936 -0.2799000144004822
          0.5023000240325928 0.7839999794960022 -0.36480000615119934 -0.07280000299215317 0.8184999823570251 -0.5698999762535095
          0.03460000082850456 0.8052999973297119 -0.5917999744415283 0.01209999993443489 0.8059999942779541 -0.5917999744415283
          -0.14139999449253082 0.5159000158309937 -0.8449000120162964 -0.02630000002682209 0.5002999901771545 -0.8654999732971191
          -0.11940000206232071 0.42329999804496765 -0.8981000185012817 -0.03009999915957451 0.12939999997615814 0.991100013256073
          0.002400000113993883 0.2671999931335449 0.9635999798774719 -0.1120000034570694 0.15000000596046448 0.9822999835014343
          -0.4345000088214874 0.039799999445676804 0.8998000025749207 -0.5328999757766724 -0.06729999929666519 0.843500018119812
          -0.4323999881744385 -0.022700000554323196 0.9014000296592712 -0.7085999846458435 -0.35690000653266907 0.6086000204086304
          -0.7577999830245972 -0.2994999885559082 0.5796999931335449 -0.7822999954223633 -0.3528999984264374 0.5133000016212463
          -0.522599995136261 -0.11879999935626984 0.8442000150680542 0.49129998683929443 0.8708000183105469 -0.01940000057220459
          0.522599995136261 0.8500999808311462 -0.06520000100135803 0.5340999960899353 0.8266000151634216 -0.17730000615119934
          0.5425999760627747 0.7886000275611877 -0.2892000079154968 0.499099999666214 0.840399980545044 -0.21140000224113464
          0.3012999892234802 0.8762000203132629 0.37610000371932983 0.33820000290870667 0.8876000046730042 0.3125999867916107
          0.2712000012397766 0.8743000030517578 0.4025000035762787 0.5478000044822693 0.685699999332428 0.47929999232292175
          0.4805000126361847 0.7782999873161316 0.4041999876499176 0.48179998993873596 0.696399986743927 0.5318999886512756
          0.0560000017285347 0.31029999256134033 -0.9490000009536743 -0.04320000112056732 0.22470000386238098 -0.9735000133514404
          -0.024700000882148743 0.27149999141693115 -0.9621000289916992 -0.39980000257492065 0.011599999852478504 -0.9164999723434448
          -0.4237000048160553 0.0658000037074089 -0.9034000039100647 -0.2946000099182129 0.12129999697208405 -0.9478999972343445
          -0.02879999950528145 0.9275000095367432 0.3727000057697296 0.048900000751018524 0.9545000195503235 0.29429998993873596
          0.20739999413490295 0.9782000184059143 0.014299999922513962 0.2353000044822693 0.9653000235557556 0.11289999634027481
          0.2506999969482422 0.967199981212616 -0.042100001126527786 -0.7056999802589417 0.701200008392334 -0.10140000283718109
          -0.7099000215530396 0.6650999784469604 -0.23180000483989716 -0.7910000085830688 0.6018999814987183 -0.10939999669790268
          -0.8199999928474426 0.47429999709129333 0.320499986410141 -0.8352000117301941 0.5024999976158142 0.22339999675750732
          -0.8826000094413757 0.3774000108242035 0.28040000796318054 0.7475000023841858 0.6636000275611877 0.028699999675154686
          0.7447999715805054 0.6647999882698059 -0.057500001043081284 0.6937999725341797 0.7200000286102295 -0.01549999974668026
          0.7663999795913696 0.5837000012397766 0.2680000066757202 0.7982000112533569 0.538100004196167 0.27079999446868896
          -0.9405999779701233 -0.3384999930858612 -0.026399999856948853 -0.808899998664856 -0.5641999840736389 0.1655000001192093
          -0.8273000121116638 -0.5422000288963318 0.14740000665187836 -0.8027999997138977 -0.5315999984741211 0.27000001072883606
          0.9707000255584717 -0.23759999871253967 -0.03590000048279762 0.8737999796867371 -0.4372999966144562 0.21289999783039093
          0.9948999881744385 -0.10040000081062317 -0.0052999998442828655 0.21529999375343323 0.34700000286102295 -0.9128000140190125
          0.18930000066757202 0.3246000111103058 -0.9266999959945679 0.2361000031232834 0.3896999955177307 -0.8902000188827515
          0.24410000443458557 0.42809998989105225 -0.870199978351593 0.2249000072479248 0.3993000090122223 -0.8888000249862671
          0.2732999920845032 0.4284000098705292 -0.861299991607666 0.980400025844574 0.15360000729560852 0.12319999933242798
          0.9372000098228455 0.24140000343322754 0.2517000138759613 0.9782999753952026 -0.11309999972581863 0.1737000048160553
          0.9298999905586243 -0.3587999939918518 -0.08070000261068344 -0.5317999720573425 0.133200004696846 0.8363999724388123
          -0.5526999831199646 -0.03240000084042549 0.8327000141143799 -0.4876999855041504 -0.01889999955892563 0.8727999925613403
          -0.7541999816894531 -0.10429999977350235 0.6482999920845032 -0.5453000068664551 0.828499972820282 0.12729999423027039
          -0.10559999942779541 0.9674999713897705 0.22990000247955322 -0.022600000724196434 0.9836999773979187 0.17839999496936798
          -0.094200000166893 0.9843999743461609 0.148499995470047 0.4706999957561493 -0.8615000247955322 0.19040000438690186
          0.5569000244140625 -0.7458999752998352 0.3653999865055084 0.6220999956130981 -0.7285000085830688 0.28690001368522644
          0.7251999974250793 -0.6728000044822693 0.14640000462532043 -0.3822000026702881 0.6157000064849854 0.6891000270843506
          -0.39329999685287476 0.5394999980926514 0.7444999814033508 -0.3172999918460846 0.6453999876976013 0.6948999762535095
          -0.8511999845504761 0.2847000062465668 0.4408000111579895 -0.8192999958992004 0.2892000079154968 0.4952000081539154
          -0.7889999747276306 0.43970000743865967 0.42910000681877136 0.4187999963760376 0.5135999917984009 -0.7488999962806702
          0.5077999830245972 0.535099983215332 -0.6751000285148621 0.5078999996185303 0.39750000834465027 -0.76419997215271
          0.7110999822616577 0.17499999701976776 -0.680899977684021 0.675000011920929 0.35429999232292175 -0.6471999883651733
          0.7888000011444092 0.26260000467300415 -0.5557000041007996 -0.24060000479221344 -0.42660000920295715 0.8718000054359436
          -0.40959998965263367 -0.40450000762939453 0.8177000284194946 -0.2603999972343445 -0.5133000016212463 0.8177000284194946
          0.1670999974012375 -0.7059999704360962 0.6881999969482422 0.4036000072956085 -0.7689999938011169 0.49570000171661377
          0.18790000677108765 -0.6093999743461609 0.7702999711036682 -0.8842999935150146 -0.125 0.4499000012874603
          0.8683000206947327 -0.4672999978065491 -0.1664000004529953 0.8427000045776367 -0.527999997138977 -0.10480000078678131
          0.9508000016212463 0.07850000262260437 -0.2996000051498413 0.857699990272522 0.2863999903202057 -0.4269999861717224
          0.9718000292778015 0.025299999862909317 -0.23420000076293945 0.6909000277519226 0.42669999599456787 0.5835999846458435
          0.6133999824523926 0.39910000562667847 0.6815000176429749 0.6693999767303467 0.3458000123500824 0.6575000286102295
          0.9009000062942505 0.20720000565052032 0.3813999891281128 0.9772999882698059 -0.029600000008940697 0.20999999344348907
          0.8689000010490417 0.35350000858306885 0.3465000092983246 -0.47540000081062317 0.05130000039935112 -0.8783000111579895
          -0.3644999861717224 0.0471000000834465 -0.9300000071525574 -0.8762000203132629 0.02930000051856041 -0.48100000619888306
          -0.8360000252723694 0.1266999989748001 -0.5339000225067139 -0.8873000144958496 0.19480000436306 -0.4180999994277954
          0.703499972820282 -0.7056000232696533 -0.08470000326633453 0.8062999844551086 -0.5813999772071838 -0.10899999737739563
          0.8100000023841858 -0.585099995136261 0.040699999779462814 -0.4526999890804291 -0.8169000148773193 0.35740000009536743
          -0.3443000018596649 -0.8799999952316284 0.3271999955177307 -0.44029998779296875 -0.8252000212669373 0.35370001196861267
          -0.47350001335144043 -0.5717999935150146 0.6699000000953674 -0.5673999786376953 -0.6470000147819519 0.5092999935150146
          -0.5677000284194946 -0.47130000591278076 0.675000011920929 -0.7682999968528748 -0.4440000057220459 0.4609000086784363
          -0.8133999705314636 -0.388700008392334 0.4327999949455261 -0.7706000208854675 -0.388700008392334 0.5051000118255615
          -0.772599995136261 -0.2053000032901764 0.6007999777793884 -0.7954999804496765 -0.24819999933242798 0.5526999831199646
          -0.8400999903678894 -0.2410999983549118 0.48590001463890076 0.06040000170469284 0.34439998865127563 0.9369000196456909
          0.1446000039577484 0.3813000023365021 0.913100004196167 0.1445000022649765 0.47200000286102295 0.8695999979972839
          -0.0722000002861023 0.28369998931884766 0.9562000036239624 -0.0812000036239624 0.29330000281333923 0.9526000022888184
          -0.1459999978542328 0.23399999737739563 0.9611999988555908 0.8302000164985657 0.5040000081062317 -0.23819999396800995