<?xml version="1.0"?>
<VTKFile type="PolyData" version="0.1" byte_order="LittleEndian" header_type="UInt32" compressor="vtkZLibDataCompressor">
  <PolyData>
    <FieldData>
      <Array type="String" Name="MaterialNames" NumberOfTuples="1" format="ascii">
        109 97 116 101 114 105 97 108 95 48 0
      </Array>
      <Array type="String" Name="MaterialLibraries" NumberOfTuples="1" format="ascii">
        109 97 116 101 114 105 97 108 46 109 116 108 0
      </Array>
    </FieldData>
    <Piece NumberOfPoints="580" NumberOfVerts="0" NumberOfLines="0" NumberOfStrips="0" NumberOfPolys="1082">
      <PointData Normals="Normals">
        <DataArray type="Float32" Name="Normals" NumberOfComponents="3" format="ascii" RangeMin="0.9999343459882437" RangeMax="1.0000747848591711">
          -0.257999986410141 0.10819999873638153 -0.960099995136261 -0.1940000057220459 -0.15790000557899475 -0.9682000279426575
          -0.38940000534057617 -0.07259999960660934 -0.9182000160217285 0.37139999866485596 0.6123999953269958 0.6978999972343445
          0.21299999952316284 0.5338000059127808 0.8183000087738037 0.4749000072479248 0.5892000198364258 0.6536999940872192
          0.8375999927520752 -0.5194000005722046 -0.16910000145435333 0.9839000105857849 0.17810000479221344 -0.016300000250339508
          0.9631999731063843 -0.22100000083446503 -0.15289999544620514 0.20819999277591705 0.6974999904632568 -0.685699999332428
          0.052799999713897705 0.5157999992370605 -0.8550999760627747 -0.022600000724196434 0.5995000004768372 -0.800000011920929
          -0.8949999809265137 0.09059999883174896 0.4366999864578247 -0.6506999731063843 -0.18379999697208405 0.7368000149726868
          -0.8719000220298767 -0.03629999980330467 0.48840001225471497 0.3587999939918518 -0.7961000204086304 -0.48730000853538513
          0.6633999943733215 -0.6055999994277954 -0.43950000405311584 0.517799973487854 -0.46970000863075256 -0.7150999903678894
          -0.5993000268936157 0.12439999729394913 0.7907999753952026 -0.6718000173568726 -0.4004000127315521 0.623199999332428
          -0.5584999918937683 -0.13819999992847443 0.8179000020027161 -0.021400000900030136 0.9995999932289124 0.01590000092983246
          -0.1039000004529953 0.9804999828338623 -0.16699999570846558 -0.16359999775886536 0.9750999808311462 0.15000000596046448
          -0.7121999859809875 0.09239999949932098 -0.695900022983551 -0.7289999723434448 0.11640000343322754 -0.6746000051498413
          -0.6717000007629395 -0.01489999983459711 -0.7407000064849854 0.1826000064611435 0.5023999810218811 0.8450999855995178
          0.14740000665187836 0.47690001130104065 0.8665000200271606 0.259799987077713 0.5791000127792358 0.7728000283241272
          0.6762999892234802 0.1492999941110611 0.7214000225067139 0.8862000107765198 -0.33219999074935913 0.3230000138282776
          0.4945000112056732 0.07020000368356705 0.8664000034332275 0.875 -0.4828999936580658 -0.03480000048875809
          0.5846999883651733 -0.6003000140190125 -0.5457000136375427 0.0997999981045723 -0.8547000288963318 0.5094000101089478
          0.23770000040531158 0.10019999742507935 0.9661999940872192 0.651199996471405 -0.550000011920929 0.5228999853134155
          0.14980000257492065 -0.1842000037431717 0.9714000225067139 0.3767000138759613 -0.7275000214576721 0.5734999775886536
          -0.13760000467300415 0.10440000146627426 0.9850000143051147 -0.8289999961853027 0.41670000553131104 0.37290000915527344
          -0.8604999780654907 0.49480000138282776 0.12139999866485596 -0.8743000030517578 0.4309000074863434 0.2232999950647354
          -0.5250999927520752 0.28940001130104065 0.8003000020980835 -0.571399986743927 0.2720000147819519 0.7742999792098999
          0.8123000264167786 -0.23499999940395355 -0.5338000059127808 0.6150000095367432 -0.2662000060081482 -0.7422000169754028
          0.7994999885559082 -0.3513999879360199 -0.4871000051498413 -0.39480000734329224 0.41850000619888306 0.8179000020027161
          -0.2094999998807907 0.24580000340938568 0.946399986743927 -0.2069000005722046 0.13429999351501465 0.9690999984741211
          0.5936999917030334 -0.6017000079154968 -0.5343000292778015 0.5702999830245972 -0.6417999863624573 -0.5127000212669373
          0.652400016784668 -0.6743000149726868 -0.3458999991416931 0.44190001487731934 -0.14309999346733093 0.8855999708175659
          0.053199999034404755 0.12950000166893005 0.9901999831199646 0.527899980545044 -0.1785999983549118 0.830299973487854
          -0.0729999989271164 0.4812000095844269 0.8736000061035156 -0.5573999881744385 0.2303999960422516 0.7975999712944031
          0.06679999828338623 0.11620000004768372 0.9909999966621399 0.36809998750686646 -0.2612000107765198 -0.892300009727478
          0.5559999942779541 -0.491100013256073 -0.6705999970436096 0.289000004529953 -0.5238999724388123 -0.8012999892234802
          -0.34540000557899475 0.43849998712539673 -0.8296999931335449 -0.2888999879360199 0.39800000190734863 -0.8707000017166138
          -0.20880000293254852 0.31279999017715454 -0.9265999794006348 -0.8364999890327454 0.5133000016212463 -0.19169999659061432
          -0.8320000171661377 0.4050000011920929 -0.3790000081062317 -0.9045000076293945 0.4262999892234802 -0.009800000116229057
          -0.1777999997138977 0.4571000039577484 0.8715000152587891 -0.36399999260902405 0.4018999934196472 0.8402000069618225
          -0.22540000081062317 0.4375999867916107 0.8705000281333923 -0.6796000003814697 0.23970000445842743 0.6933000087738037
          -0.6123999953269958 0.20730000734329224 0.7628999948501587 -0.48809999227523804 0.16009999811649323 0.8579999804496765
          0.1348000019788742 0.3977000117301941 -0.9075999855995178 0.2069000005722046 0.5052000284194946 -0.8378000259399414
          0.4415999948978424 0.3050000071525574 -0.8438000082969666 0.07490000128746033 0.8026999831199646 -0.59170001745224
          0.42820000648498535 0.8583999872207642 0.2824000120162964 0.762499988079071 0.5619999766349792 0.3206999897956848
          0.6996999979019165 0.7055000066757202 0.1128000020980835 0.8664000034332275 -0.3797000050544739 -0.32420000433921814
          0.9767000079154968 -0.210099995136261 -0.04399999976158142 0.8927000164985657 -0.2879999876022339 0.3465999960899353
          -0.44670000672340393 0.2379000037908554 0.862500011920929 -0.38609999418258667 0.4629000127315521 0.7979000210762024
          -0.6319000124931335 0.44510000944137573 0.6345000267028809 -0.7746999859809875 -0.14470000565052032 -0.6155999898910522
          -0.8465999960899353 -0.17149999737739563 -0.5037999749183655 -0.2980000078678131 0.02019999921321869 0.9544000029563904
          -0.5338000059127808 0.3440999984741211 0.7724000215530396 0.10909999907016754 0.5525000095367432 0.8263000249862671
          0.8743000030517578 -0.3230000138282776 -0.36250001192092896 0.32409998774528503 -0.7336000204086304 0.5974000096321106
          0.9753000140190125 0.16609999537467957 0.14579999446868896 0.8539000153541565 -0.31850001215934753 0.4117000102996826
          0.8022000193595886 -0.5770999789237976 0.1527000069618225 0.4115000069141388 0.6861000061035156 0.6000000238418579
          0.6499000191688538 0.4796999990940094 0.5893999934196472 0.4494999945163727 -0.8608999848365784 -0.23839999735355377
          0.6096000075340271 -0.6729000210762024 -0.4189999997615814 -0.920199990272522 -0.30169999599456787 0.24950000643730164
          -0.8549000024795532 -0.11999999731779099 0.5047000050544739 -0.9169999957084656 -0.09589999914169312 0.3871000111103058
          -0.7642999887466431 0.21279999613761902 0.6086999773979187 -0.6668999791145325 0.2838999927043915 0.6888999938964844
          0.04179999977350235 -0.7164000272750854 -0.696399986743927 0.10189999639987946 -0.6567000150680542 -0.7472000122070312
          0.5454999804496765 -0.6697999835014343 -0.5037999749183655 -0.9739999771118164 -0.20090000331401825 -0.1046999990940094
          -0.9028000235557556 -0.012900000438094139 0.42980000376701355 -0.7720999717712402 0.20020000636577606 0.6031000018119812
          -0.3727000057697296 -0.741100013256073 0.5583999752998352 -0.27219998836517334 -0.9126999974250793 0.30480000376701355
          0.05649999901652336 -0.47589999437332153 0.8776999711990356 0.8611000180244446 -0.421099990606308 -0.2849999964237213
          0.9664000272750854 -0.17489999532699585 -0.18850000202655792 0.9241999983787537 0.16840000450611115 0.34279999136924744
          -0.5113000273704529 0.6360999941825867 -0.5778999924659729 -0.48330000042915344 0.5277000069618225 -0.6985999941825867
          -0.6575000286102295 0.5073999762535095 -0.5569000244140625 -0.38749998807907104 0.9156000018119812 -0.10769999772310257
          -0.33550000190734863 0.8859999775886536 -0.32010000944137573 -0.5385000109672546 0.820900022983551 -0.19020000100135803
          -0.9035000205039978 -0.09300000220537186 0.41830000281333923 0.9081000089645386 0.020099999383091927 0.41830000281333923
          0.9715999960899353 0.10180000215768814 -0.21379999816417694 0.9689000248908997 -0.06279999762773514 0.2393999993801117
          -0.30820000171661377 0.11180000007152557 -0.9447000026702881 -0.14880000054836273 -0.13910000026226044 -0.9789999723434448
          -0.1695999950170517 0.03519999980926514 -0.9848999977111816 -0.07530000060796738 0.2892000079154968 0.9542999863624573
          -0.18950000405311584 0.23890000581741333 0.9524000287055969 -0.15520000457763672 0.15459999442100525 0.9757000207901001
          -0.7192000150680542 0.19779999554157257 0.666100025177002 -0.9279000163078308 0.328900009393692 -0.17550000548362732
          -0.9894999861717224 0.09529999643564224 -0.10909999907016754 -0.9542999863624573 0.2621000111103058 0.14339999854564667
          0.06430000066757202 -0.9965000152587891 0.05350000038743019 0.5841000080108643 -0.7312999963760376 -0.3522000014781952
          0.7736999988555908 -0.5127999782562256 -0.37209999561309814 0.7192000150680542 -0.6183000206947327 -0.31690001487731934
          0.8348000049591064 -0.11410000175237656 -0.5386000275611877 0.8490999937057495 -0.3986999988555908 -0.3465000092983246
          0.8966000080108643 -0.3785000145435333 -0.23000000417232513 0.8223999738693237 0.49459999799728394 -0.28119999170303345
          0.7513999938964844 0.5103999972343445 -0.41819998621940613 0.6589000225067139 0.5543000102043152 -0.5085999965667725
          0.35690000653266907 0.8991000056266785 -0.2533000111579895 0.30399999022483826 0.8321999907493591 -0.4636000096797943
          0.1818999946117401 0.8567000031471252 -0.482699990272522 0.0034000000450760126 0.9003999829292297 0.4350000023841858
          -0.31700000166893005 0.8633000254631042 0.3928000032901764 -0.0414000004529953 0.8281999826431274 0.558899998664856
          -0.27459999918937683 0.21709999442100525 0.9366999864578247 -0.11590000241994858 0.31709998846054077 0.9412999749183655
          -0.38019999861717224 0.3319000005722046 0.8633000254631042 0.2281000018119812 -0.2888000011444092 -0.9297999739646912
          -0.22259999811649323 -0.11240000277757645 -0.9684000015258789 0.35899999737739563 -0.03200000151991844 -0.9327999949455261
          -0.2371000051498413 0.6220999956130981 0.7461000084877014 0.34380000829696655 0.9358999729156494 0.0763000026345253
          -0.45320001244544983 0.41519999504089355 0.7888000011444092 0.7254999876022339 -0.5174000263214111 -0.4537999927997589
          -0.3864000141620636 0.08389999717473984 0.9185000061988831 0.18129999935626984 -0.3799000084400177 0.9071000218391418
          -0.2777999937534332 -0.43380001187324524 0.8571000099182129 -0.843999981880188 -0.4311999976634979 0.3190000057220459
          -0.3677999973297119 -0.4187000095844269 -0.830299973487854 -0.6057999730110168 0.029100000858306885 -0.7950999736785889
          -0.1842000037431717 0.2549999952316284 0.9491999745368958 -0.30869999527931213 0.39259999990463257 0.8662999868392944
          -0.39910000562667847 0.38519999384880066 0.832099974155426 -0.4909000098705292 0.33059999346733093 0.8059999942779541
          -0.07760000228881836 -0.1914999932050705 -0.9783999919891357 -0.06539999693632126 -0.17409999668598175 -0.9825999736785889
          -0.12759999930858612 -0.3718999922275543 -0.9193999767303467 0.41040000319480896 0.6621000170707703 0.6269999742507935
          0.00019999999494757503 0.10649999976158142 0.9943000078201294 -0.06949999928474426 -0.25099998712539673 0.965499997138977
          0.024299999698996544 0.3944999873638153 0.9186000227928162 0.00559999980032444 0.2513999938964844 0.9678999781608582
          0.968500018119812 -0.24770000576972961 0.027000000700354576 0.9966999888420105 0.055799998342990875 0.05829999968409538
          0.7232000231742859 0.3345000147819519 0.604200005531311 0.7827000021934509 -0.5472000241279602 -0.29670000076293945
          0.7811999917030334 -0.5860000252723694 -0.21529999375343323 0.9017999768257141 -0.11209999769926071 -0.4172999858856201
          0.3402999937534332 0.3165999948978424 -0.8853999972343445 -0.6636000275611877 0.4578000009059906 -0.59170001745224
          -0.6001999974250793 0.5077000260353088 -0.6179999709129333 -0.5110999941825867 0.2434999942779541 -0.8242999911308289
          -0.5142999887466431 0.09669999778270721 -0.8521999716758728 0.2312999963760376 -0.5378999710083008 -0.810699999332428
          0.3903999924659729 -0.6866000294685364 -0.6133000254631042 0.28189998865127563 -0.6284000277519226 -0.7250999808311462
          -0.6694999933242798 -0.486299991607666 -0.5615000128746033 -0.8805999755859375 -0.42149999737739563 0.21660000085830688
          0.01590000092983246 -0.34689998626708984 -0.9377999901771545 0.11980000138282776 -0.8299000263214111 -0.5449000000953674
          0.17579999566078186 0.8427000045776367 0.5090000033378601 0.5134999752044678 0.8435999751091003 -0.15690000355243683
          0.5296000242233276 0.8471999764442444 0.0414000004529953 0.7472000122070312 -0.40389999747276306 -0.5278000235557556
          0.6179999709129333 -0.7404000163078308 -0.26440000534057617 0.6891000270843506 -0.7242000102996826 0.0272000003606081
          0.7991999983787537 -0.5641000270843506 0.20749999582767487 0.9456999897956848 -0.11739999800920486 -0.30320000648498535
          0.6492999792098999 -0.10019999742507935 -0.7538999915122986 -0.2175000011920929 0.7105000019073486 0.6693000197410583
          -0.5121999979019165 0.5521000027656555 0.6578999757766724 -0.19769999384880066 0.4742000102996826 0.8579000234603882
          -0.54830002784729 0.8233000040054321 0.1468999981880188 -0.43540000915527344 0.7466999888420105 0.5029000043869019
          0.27630001306533813 0.6442999839782715 0.713100016117096 0.07129999995231628 0.6247000098228455 0.7775999903678894
          0.3262999951839447 0.3928999900817871 0.8597999811172485 0.6513000130653381 0.25769999623298645 0.7138000130653381
          0.5375000238418579 -0.0348999984562397 0.8424999713897705 0.7954999804496765 -0.07119999825954437 0.6017000079154968
          -0.503600001335144 -0.28690001368522644 0.8149999976158142 -0.7888000011444092 -0.05660000070929527 0.6119999885559082
          0.7311000227928162 -0.5727999806404114 0.37059998512268066 0.574999988079071 -0.8136000037193298 0.08649999648332596
          0.1257999986410141 -0.9634000062942505 0.23649999499320984 0.8949000239372253 0.37599998712539673 -0.2401999980211258
          0.7871999740600586 0.6166999936103821 0.005200000014156103 0.8819000124931335 0.46810001134872437 -0.05689999833703041
          0.5771999955177307 0.265500009059906 0.7721999883651733 -0.8702999949455261 0.40389999747276306 -0.28200000524520874
          -0.8496000170707703 0.4472000002861023 -0.27950000762939453 -0.9768999814987183 0.19210000336170197 0.094200000166893
          -0.8884999752044678 0.2092999964952469 0.4083999991416931 0.2603999972343445 -0.25769999623298645 0.9304999709129333
          0.17839999496936798 -0.266400009393692 0.9472000002861023 0.5587999820709229 -0.8277999758720398 0.05040000006556511
          0.6484000086784363 0.29989999532699585 0.6998000144958496 -0.8815000057220459 -0.0010000000474974513 -0.47209998965263367
          -0.6471999883651733 0.2818000018596649 -0.708299994468689 -0.10289999842643738 -0.9821000099182129 -0.15790000557899475
          -0.61080002784729 -0.7329000234603882 -0.2996000051498413 -0.27900001406669617 -0.9539999961853027 0.1096000000834465
          -0.974399983882904 0.01860000006854534 -0.22429999709129333 -0.8496999740600586 0.21699999272823334 0.4805000126361847
          -0.4912000000476837 0.000699999975040555 0.8709999918937683 -0.9570000171661377 -0.0754999965429306 0.28029999136924744
          0.5914999842643738 -0.043699998408555984 0.8051000237464905 0.9136999845504761 -0.3463999927043915 0.21240000426769257
          0.5580000281333923 0.06040000170469284 0.8276000022888184 0.3353999853134155 0.42969998717308044 0.8384000062942505
          -0.08349999785423279 0.5322999954223633 0.8424000144004822 -0.19140000641345978 0.15610000491142273 -0.968999981880188
          -0.03840000182390213 0.30809998512268066 -0.9506000280380249 0.993399977684021 0.09109999984502792 0.07020000368356705
          0.9728999733924866 0.04129999876022339 -0.22759999334812164 0.006500000134110451 -0.15880000591278076 -0.9872999787330627
          0.16680000722408295 -0.3052999973297119 -0.9375 0.6995000243186951 -0.2029999941587448 -0.6851999759674072
          0.030500000342726707 -0.05139999836683273 0.998199999332428 -0.9700999855995178 -0.1412000060081482 0.19760000705718994
          -0.9495999813079834 0.0908999964594841 0.29989999532699585 -0.9366000294685364 0.08649999648332596 0.33970001339912415
          0.9588000178337097 0.10859999805688858 -0.26249998807907104 0.7660999894142151 0.47519999742507935 -0.4327999949455261
          0.25600001215934753 0.10939999669790268 -0.9605000019073486 -0.8033000230789185 0.4352000057697296 0.4065000116825104
          -0.9735000133514404 0.0868000015616417 0.21170000731945038 -0.3003000020980835 0.4790000021457672 -0.8248000144958496
          -0.2502000033855438 0.5450999736785889 -0.8001999855041504 -0.1256999969482422 0.4228000044822693 -0.8974999785423279
          -0.4016000032424927 0.7644000053405762 -0.5044000148773193 0.9790999889373779 0.13040000200271606 -0.1559000015258789
          0.7817000150680542 -0.29660001397132874 0.5486000180244446 -0.8327000141143799 -0.5418999791145325 -0.11339999735355377
          -0.777899980545044 -0.0746999979019165 0.6240000128746033 -0.7077999711036682 -0.5216000080108643 0.4763000011444092
          -0.03620000183582306 -0.6089000105857849 -0.7924000024795532 -0.030300000682473183 -0.798799991607666 -0.6008999943733215
          0.6690999865531921 -0.711899995803833 -0.2134000062942505 0.6906999945640564 -0.5928999781608582 0.414000004529953
          -0.09489999711513519 0.034299999475479126 -0.9948999881744385 0.007699999958276749 -0.20509999990463257 -0.9786999821662903
          -0.03660000115633011 -0.19589999318122864 -0.9799000024795532 0.06939999759197235 -0.5065000057220459 -0.859499990940094
          0.8198999762535095 -0.2160000056028366 -0.5302000045776367 0.8205999732017517 -0.40139999985694885 -0.40689998865127563
          0.9179999828338623 -0.3691999912261963 0.1446000039577484 0.8472999930381775 -0.520799994468689 -0.10400000214576721
          -0.10540000349283218 0.3953999876976013 0.9124000072479248 -0.45750001072883606 0.3222000002861023 0.8288000226020813
          0.9555000066757202 -0.039000000804662704 0.29249998927116394 0.6779999732971191 0.1509000062942505 0.7193999886512756
          0.51910001039505 -0.11400000005960464 0.847100019454956 -0.12780000269412994 0.23010000586509705 0.9646999835968018
          0.5562000274658203 -0.4300000071525574 -0.7110999822616577 0.930899977684021 0.0617000013589859 -0.36000001430511475
          0.8503999710083008 -0.49480000138282776 0.17900000512599945 0.9208999872207642 -0.37470000982284546 0.10750000178813934
          0.9616000056266785 -0.06930000334978104 0.265500009059906 0.08020000159740448 -0.9936000108718872 -0.07909999787807465
          -0.06440000236034393 -0.8773000240325928 -0.475600004196167 0.43709999322891235 -0.7900000214576721 -0.42989999055862427
          -0.8259999752044678 0.5634999871253967 -0.010099999606609344 -0.8475000262260437 0.4893999993801117 0.2054000049829483
          -0.6901999711990356 0.6553999781608582 -0.3068000078201294 -0.4171999990940094 -0.29429998993873596 0.8598999977111816
          0.39340001344680786 -0.9032999873161316 -0.1712999939918518 0.5852000117301941 0.597100019454956 0.5486999750137329
          0.6917999982833862 0.7055000066757202 0.15369999408721924 0.6872000098228455 0.44179999828338623 0.57669997215271
          0.49390000104904175 0.8690999746322632 0.027499999850988388 0.43639999628067017 0.895799994468689 0.08470000326633453
          0.6280999779701233 0.6956999897956848 0.3483999967575073 -0.6028000116348267 -0.01899999938905239 -0.7976999878883362
          -0.7120000123977661 -0.19210000336170197 -0.6754000186920166 -0.5012000203132629 -0.5727999806404114 -0.6485999822616577
          0.3147999942302704 -0.07699999958276749 0.9459999799728394 0.5023000240325928 0.2484000027179718 0.8281999826431274
          0.005900000222027302 0.2533000111579895 0.9674000144004822 0.7357000112533569 -0.2660999894142151 -0.6227999925613403
          0.9968000054359436 0.07769999653100967 0.01850000023841858 -0.5849999785423279 -0.05380000174045563 -0.8091999888420105
          -0.5393999814987183 0.004100000020116568 -0.8421000242233276 -0.567300021648407 -0.6399000287055969 -0.5182999968528748
          -0.36959999799728394 -0.6606000065803528 0.6534000039100647 -0.3321000039577484 -0.8651000261306763 0.37599998712539673
          0.4300999939441681 0.329800009727478 0.840399980545044 0.8565999865531921 -0.09160000085830688 -0.5077000260353088
          0.9025999903678894 -0.40630000829696655 -0.14239999651908875 0.9322999715805054 -0.34049999713897705 0.121799997985363
          0.5040000081062317 -0.03680000081658363 0.8629000186920166 -0.7207000255584717 0.09210000187158585 -0.6870999932289124
          -0.776199996471405 0.043800000101327896 -0.6290000081062317 -0.6154000163078308 -0.06560000032186508 -0.7854999899864197
          -0.675599992275238 -0.026599999517202377 -0.7368000149726868 -0.05950000137090683 0.2563999891281128 0.9646999835968018
          0.03370000049471855 0.385699987411499 0.921999990940094 0.7628999948501587 -0.5976999998092651 -0.24619999527931213
          0.8834999799728394 -0.4074999988079071 0.23090000450611115 0.7450000047683716 -0.5918999910354614 -0.3077000081539154
          -0.2750000059604645 0.42410001158714294 0.8628000020980835 0.008700000122189522 0.43149998784065247 0.9021000266075134
          -0.8682000041007996 0.3580999970436096 0.3434999883174896 -0.9459999799728394 0.14589999616146088 0.2896000146865845
          -0.8909000158309937 0.07880000025033951 0.447299987077713 -0.12210000306367874 0.22190000116825104 -0.9674000144004822
          -0.033799998462200165 0.29030001163482666 -0.9563999772071838 0.7705000042915344 0.3005000054836273 0.5622000098228455
          0.2646999955177307 0.5274999737739563 0.8072999715805054 0.2639999985694885 0.5494999885559082 0.7926999926567078
          0.8454999923706055 -0.4366999864578247 0.30720001459121704 0.7993000149726868 -0.5963000059127808 0.07419999688863754
          -0.5735999941825867 0.8188999891281128 -0.02019999921321869 -0.45559999346733093 0.8748000264167786 0.1648000031709671
          0.22779999673366547 -0.6425999999046326 -0.7315000295639038 0.6459000110626221 0.7257999777793884 -0.23690000176429749
          -0.0632999986410141 0.9254999756813049 -0.3734000027179718 0.14880000054836273 0.9096999764442444 -0.387800008058548
          0.4772999882698059 -0.8748999834060669 -0.08219999819993973 0.5863000154495239 -0.7450000047683716 0.3181000053882599
          0.720300018787384 -0.42669999599456787 -0.5468999743461609 -0.006500000134110451 -0.351500004529953 -0.9362000226974487
          0.09290000051259995 -0.5095999836921692 -0.855400025844574 -0.37619999051094055 -0.2289000004529953 -0.8978000283241272
          -0.1688999980688095 -0.18060000240802765 -0.968999981880188 -0.19009999930858612 -0.7149999737739563 -0.6728000044822693
          -0.16019999980926514 -0.428600013256073 -0.88919997215271 0.5368000268936157 0.8104000091552734 0.23479999601840973
          0.6104999780654907 0.6722000241279602 0.4189000129699707 0.41920000314712524 0.6157000064849854 0.6672000288963318
          0.9944000244140625 -0.10570000112056732 -0.009700000286102295 0.00860000029206276 0.6847000122070312 0.7287999987602234
          0.08269999921321869 0.4952999949455261 0.864799976348877 -0.035599999129772186 0.4081999957561493 0.9121999740600586
          -0.6572999954223633 -0.3693999946117401 0.6568999886512756 0.9440000057220459 -0.3158000111579895 0.09570000320672989
          -0.18889999389648438 0.3336000144481659 0.9236000180244446 -0.40799999237060547 0.21770000457763672 0.8866999745368958
          -0.4797999858856201 0.3237000107765198 0.815500020980835 0.4602999985218048 -0.3075000047683716 -0.8327999711036682
          0.22679999470710754 -0.3734000027179718 -0.8995000123977661 0.366100013256073 0.8884999752044678 0.2766999900341034
          -0.8744999766349792 0.16089999675750732 0.45750001072883606 -0.5217000246047974 -0.19609999656677246 0.830299973487854
          -0.7045999765396118 0.12240000069141388 0.6988999843597412 -0.8327000141143799 0.3151000142097473 0.4553000032901764
          -0.4417000114917755 0.2872999906539917 0.8499000072479248 -0.5582000017166138 0.1665000021457672 0.8127999901771545
          -0.7727000117301941 0.4020000100135803 0.4912000000476837 0.002400000113993883 -0.49059998989105225 -0.871399998664856
          -0.06300000101327896 -0.42980000376701355 -0.9006999731063843 -0.06809999793767929 -0.3345000147819519 -0.9398999810218811
          0.6330000162124634 -0.7590000033378601 0.15230000019073486 0.5641000270843506 -0.8129000067710876 -0.14480000734329224
          0.05339999869465828 0.22949999570846558 0.9718000292778015 -0.04520000144839287 0.24770000576972961 0.9678000211715698
          0.7401000261306763 0.375 0.5582000017166138 0.4345000088214874 0.5982999801635742 -0.6732000112533569
          0.5640000104904175 0.36880001425743103 -0.7389000058174133 -0.2696000039577484 0.14429999887943268 -0.9520999789237976
          -0.43650001287460327 0.19660000503063202 -0.8779000043869019 -0.30379998683929443 0.27709999680519104 -0.9115999937057495
          -0.8192999958992004 0.09960000216960907 0.5647000074386597 -0.7005000114440918 -0.006899999920278788 0.7135999798774719
          -0.4918999969959259 0.3452000021934509 0.7993000149726868 -0.6923999786376953 0.49729999899864197 -0.5228000283241272
          0.9103999733924866 -0.41370001435279846 0.010900000110268593 -0.9699000120162964 0.22779999673366547 0.08619999885559082
          -0.6453999876976013 -0.16269999742507935 -0.7462999820709229 0.6373000144958496 -0.4880000054836273 -0.5964999794960022
          0.5073999762535095 -0.6538000106811523 -0.5612999796867371 0.7829999923706055 -0.5950000286102295 -0.18150000274181366
          -0.12449999898672104 0.6808000206947327 -0.7218000292778015 -0.24089999496936798 0.8129000067710876 -0.5302000045776367
          -0.3643999993801117 0.6169000267982483 -0.6976000070571899 0.732200026512146 -0.1039000004529953 0.6732000112533569
          0.6786999702453613 -0.053300000727176666 0.7325000166893005 0.4284999966621399 0.5529000163078308 0.7146999835968018
          0.6449000239372253 0.15320000052452087 0.7487000226974487 0.451200008392334 -0.8779000043869019 -0.16050000488758087
          0.10100000351667404 -0.5227000117301941 0.8464999794960022 0.5389000177383423 0.7620000243186951 0.35910001397132874
          0.11980000138282776 0.919700026512146 0.37400001287460327 -0.1657000035047531 -0.4632999897003174 0.8705000281333923
          -0.39820000529289246 0.4855000078678131 -0.7781999707221985 0.6791999936103821 -0.019700000062584877 -0.7336999773979187
          0.6039999723434448 0.21729999780654907 -0.7667999863624573 0.7037000060081482 0.564300000667572 -0.4316999912261963
          0.8726999759674072 0.4616999924182892 0.15860000252723694 0.6977999806404114 0.5627999901771545 0.4429999887943268
          -0.6764000058174133 0.08420000225305557 0.7318000197410583 -0.6840000152587891 0.07660000026226044 0.7254999876022339
          -0.9675999879837036 0.2515000104904175 0.021800000220537186 0.6607000231742859 -0.7447999715805054 0.09359999746084213
          0.15129999816417694 -0.9649999737739563 -0.2143000066280365 0.9714999794960022 0.1826999932527542 0.15080000460147858
          -0.957099974155426 -0.26600000262260437 -0.11460000276565552 -0.9851999878883362 0.05260000005364418 -0.163100004196167
          0.9412000179290771 -0.13330000638961792 -0.31040000915527344 0.8765000104904175 -0.25459998846054077 -0.40860000252723694
          0.670199990272522 -0.3864000141620636 -0.6337000131607056 -0.01080000028014183 0.5199000239372253 0.854200005531311
          0.8062999844551086 -0.5701000094413757 -0.1574999988079071 0.684499979019165 -0.6050999760627747 -0.4065999984741211
          0.8996999859809875 -0.4106000065803528 -0.14810000360012054 -0.7296000123023987 0.4544000029563904 -0.5110999941825867
          -0.9185000061988831 0.07360000163316727 -0.38839998841285706 0.7723000049591064 -0.017100000753998756 -0.6349999904632568
          0.5989999771118164 0.1429000049829483 -0.7878999710083008 0.983299970626831 0.15389999747276306 -0.09679999947547913
          0.6827999949455261 -0.1881999969482422 -0.7059000134468079 0.6359000205993652 0.24320000410079956 -0.7324000000953674